REMARK WARNING: 32 MAX_TORS EXCEEDED!!!
REMARK  44 active torsions:
REMARK  status: ('A' for Active; 'I' for Inactive)
REMARK    1  A    between atoms: P_1  and  O_2 
REMARK    2  A    between atoms: P_1  and  O_8 
REMARK    3  A    between atoms: O_2  and  C_15 
REMARK    4  A    between atoms: O_3  and  C_16 
REMARK    5  A    between atoms: O_4  and  C_17 
REMARK    6  A    between atoms: O_5  and  C_18 
REMARK    7  A    between atoms: O_6  and  C_19 
REMARK    8  A    between atoms: O_7  and  C_20 
REMARK    9  A    between atoms: O_8  and  C_21 
REMARK   10  A    between atoms: O_11  and  C_37 
REMARK   11  A    between atoms: O_11  and  C_22 
REMARK   12  A    between atoms: O_12  and  C_23 
REMARK   13  A    between atoms: O_12  and  C_40 
REMARK   14  A    between atoms: C_21  and  C_22 
REMARK   15  A    between atoms: C_22  and  C_23 
REMARK   16  A    between atoms: C_24  and  C_25 
REMARK   17  A    between atoms: C_24  and  C_26 
REMARK   18  A    between atoms: C_25  and  C_27 
REMARK   19  A    between atoms: C_26  and  C_28 
REMARK   20  A    between atoms: C_27  and  C_29 
REMARK   21  A    between atoms: C_28  and  C_30 
REMARK   22  A    between atoms: C_29  and  C_31 
REMARK   23  A    between atoms: C_30  and  C_32 
REMARK   24  A    between atoms: C_31  and  C_33 
REMARK   25  A    between atoms: C_32  and  C_34 
REMARK   26  A    between atoms: C_33  and  C_36 
REMARK   27  A    between atoms: C_34  and  C_35 
REMARK   28  A    between atoms: C_35  and  C_40 
REMARK   29  A    between atoms: C_36  and  C_43 
REMARK   30  A    between atoms: C_37  and  C_38 
REMARK   31  A    between atoms: C_38  and  C_39 
REMARK   32  A    between atoms: C_39  and  C_41 
REMARK   33  A    between atoms: C_41  and  C_42 
REMARK   34  A    between atoms: C_42  and  C_44 
REMARK   35  A    between atoms: C_44  and  C_45 
REMARK   36  A    between atoms: C_45  and  C_48 
REMARK   37  A    between atoms: C_46  and  C_47 
REMARK   38  A    between atoms: C_46  and  C_49 
REMARK   39  A    between atoms: C_47  and  C_50 
REMARK   40  A    between atoms: C_48  and  C_54 
REMARK   41  A    between atoms: C_49  and  C_52 
REMARK   42  A    between atoms: C_50  and  C_53 
REMARK   43  A    between atoms: C_52  and  C_55 
REMARK   44  A    between atoms: C_53  and  C_56 
ROOT
HETATM    1  C   UNK     0      -0.714  10.163  -6.263  0.00  0.00     0.184 C 
ENDROOT
BRANCH   1   2
HETATM    2  O   UNK     0      -0.572   8.753  -6.014  0.00  0.00    -0.299 OA
BRANCH   2   3
HETATM    3  C   UNK     0       0.599   8.086  -5.806  0.00  0.00     0.272 C 
HETATM    4  O   UNK     0       1.543   8.162  -6.624  0.00  0.00    -0.264 OA
BRANCH   3   5
HETATM    5  C   UNK     0       0.742   7.323  -4.551  0.00  0.00     0.096 C 
BRANCH   5   6
HETATM    6  C   UNK     0       0.522   5.793  -4.674  0.00  0.00     0.010 C 
BRANCH   6   7
HETATM    7  C   UNK     0       0.493   5.140  -3.264  0.00  0.00     0.001 C 
BRANCH   7   8
HETATM    8  C   UNK     0       0.259   3.605  -3.251  0.00  0.00     0.000 C 
BRANCH   8   9
HETATM    9  C   UNK     0       0.169   3.079  -1.790  0.00  0.00     0.000 C 
BRANCH   9  10
HETATM   10  C   UNK     0      -0.010   1.542  -1.668  0.00  0.00     0.005 C 
BRANCH  10  11
HETATM   11  C   UNK     0      -0.154   1.101  -0.182  0.00  0.00     0.026 C 
BRANCH  11  12
HETATM   12  C   UNK     0      -0.127  -0.348  -0.033  0.00  0.00    -0.031 C 
HETATM   13  C   UNK     0       0.979  -1.107   0.085  0.00  0.00    -0.031 C 
BRANCH  13  14
HETATM   14  C   UNK     0       2.354  -0.625   0.115  0.00  0.00     0.026 C 
BRANCH  14  15
HETATM   15  C   UNK     0       2.840  -0.331   1.560  0.00  0.00     0.005 C 
BRANCH  15  16
HETATM   16  C   UNK     0       4.255   0.304   1.567  0.00  0.00     0.000 C 
BRANCH  16  17
HETATM   17  C   UNK     0       4.776   0.604   2.996  0.00  0.00     0.000 C 
BRANCH  17  18
HETATM   18  C   UNK     0       6.144   1.338   2.986  0.00  0.00     0.000 C 
BRANCH  18  19
HETATM   19  C   UNK     0       6.649   1.661   4.418  0.00  0.00     0.000 C 
BRANCH  19  20
HETATM   20  C   UNK     0       8.024   2.381   4.427  0.00  0.00     0.000 C 
HETATM   21  C   UNK     0       8.541   2.670   5.855  0.00  0.00     0.000 C 
ENDBRANCH  19  20
ENDBRANCH  18  19
ENDBRANCH  17  18
ENDBRANCH  16  17
ENDBRANCH  15  16
ENDBRANCH  14  15
ENDBRANCH  13  14
ENDBRANCH  11  12
ENDBRANCH  10  11
ENDBRANCH   9  10
ENDBRANCH   8   9
ENDBRANCH   7   8
ENDBRANCH   6   7
ENDBRANCH   5   6
ENDBRANCH   3   5
ENDBRANCH   2   3
ENDBRANCH   1   2
BRANCH   1  22
HETATM   22  C   UNK     0      -1.929  10.459  -7.180  0.00  0.00     0.187 C 
BRANCH  22  23
HETATM   23  O   UNK     0      -2.085   9.480  -8.229  0.00  0.00    -0.268 OA
BRANCH  23  24
HETATM   24  P   UNK     0      -3.373   9.670  -9.161  0.00  0.00     0.410 P 
HETATM   25  O   UNK     0      -3.975  11.133  -9.044  0.00  0.00    -0.624 OA
HETATM   26  O   UNK     0      -2.953   9.472 -10.556  0.00  0.00    -0.624 OA
BRANCH  24  27
HETATM   27  O   UNK     0      -4.513   8.586  -8.849  0.00  0.00    -0.268 OA
BRANCH  27  28
HETATM   28  C   UNK     0      -5.033   8.325  -7.521  0.00  0.00     0.185 C 
HETATM   29  C   UNK     0      -5.719   9.531  -6.804  0.00  0.00     0.170 C 
HETATM   30  C   UNK     0      -6.332   9.127  -5.435  0.00  0.00     0.169 C 
HETATM   31  C   UNK     0      -5.290   8.425  -4.520  0.00  0.00     0.169 C 
HETATM   32  C   UNK     0      -4.676   7.180  -5.224  0.00  0.00     0.169 C 
HETATM   33  C   UNK     0      -4.042   7.553  -6.593  0.00  0.00     0.170 C 
BRANCH  29  34
HETATM   34  O   UNK     0      -6.742  10.089  -7.628  0.00  0.00    -0.380 OA
HETATM   35  H   UNK     0      -6.279  10.429  -8.423  0.00  0.00     0.211 HD
ENDBRANCH  29  34
BRANCH  30  36
HETATM   36  O   UNK     0      -6.833  10.298  -4.791  0.00  0.00    -0.380 OA
HETATM   37  H   UNK     0      -7.256   9.976  -3.968  0.00  0.00     0.211 HD
ENDBRANCH  30  36
BRANCH  31  38
HETATM   38  O   UNK     0      -5.918   8.038  -3.299  0.00  0.00    -0.380 OA
HETATM   39  H   UNK     0      -5.193   7.699  -2.734  0.00  0.00     0.211 HD
ENDBRANCH  31  38
BRANCH  32  40
HETATM   40  O   UNK     0      -3.675   6.605  -4.385  0.00  0.00    -0.380 OA
HETATM   41  H   UNK     0      -3.304   5.860  -4.903  0.00  0.00     0.211 HD
ENDBRANCH  32  40
BRANCH  33  42
HETATM   42  O   UNK     0      -3.570   6.382  -7.258  0.00  0.00    -0.380 OA
HETATM   43  H   UNK     0      -3.007   6.717  -7.987  0.00  0.00     0.211 HD
ENDBRANCH  33  42
ENDBRANCH  27  28
ENDBRANCH  24  27
ENDBRANCH  23  24
ENDBRANCH  22  23
ENDBRANCH   1  22
BRANCH   1  44
HETATM   44  C   UNK     0      -0.872  10.874  -4.881  0.00  0.00     0.184 C 
BRANCH  44  45
HETATM   45  O   UNK     0      -1.484   9.995  -3.924  0.00  0.00    -0.299 OA
BRANCH  45  46
HETATM   46  C   UNK     0      -1.929  10.316  -2.677  0.00  0.00     0.272 C 
HETATM   47  O   UNK     0      -2.470  11.420  -2.442  0.00  0.00    -0.264 OA
BRANCH  46  48
HETATM   48  C   UNK     0      -1.629   9.366  -1.584  0.00  0.00     0.096 C 
BRANCH  48  49
HETATM   49  C   UNK     0      -0.144   9.570  -1.175  0.00  0.00     0.010 C 
BRANCH  49  50
HETATM   50  C   UNK     0       0.466   8.491  -0.240  0.00  0.00     0.001 C 
BRANCH  50  51
HETATM   51  C   UNK     0       1.952   8.837   0.060  0.00  0.00     0.000 C 
BRANCH  51  52
HETATM   52  C   UNK     0       2.698   7.882   1.031  0.00  0.00     0.000 C 
BRANCH  52  53
HETATM   53  C   UNK     0       4.145   8.397   1.286  0.00  0.00     0.000 C 
BRANCH  53  54
HETATM   54  C   UNK     0       4.997   7.538   2.259  0.00  0.00     0.000 C 
BRANCH  54  55
HETATM   55  C   UNK     0       6.373   8.202   2.555  0.00  0.00     0.000 C 
BRANCH  55  56
HETATM   56  C   UNK     0       7.233   7.402   3.570  0.00  0.00     0.000 C 
BRANCH  56  57
HETATM   57  C   UNK     0       8.630   8.122   3.798  0.00  0.00     0.000 C 
BRANCH  57  58
HETATM   58  C   UNK     0       9.487   7.345   4.829  0.00  0.00     0.000 C 
BRANCH  58  59
HETATM   59  C   UNK     0      10.860   8.010   5.118  0.00  0.00     0.000 C 
BRANCH  59  60
HETATM   60  C   UNK     0      11.680   7.191   6.151  0.00  0.00     0.000 C 
BRANCH  60  61
HETATM   61  C   UNK     0      13.056   7.817   6.491  0.00  0.00     0.000 C 
HETATM   62  C   UNK     0      13.842   6.967   7.516  0.00  0.00     0.000 C 
ENDBRANCH  60  61
ENDBRANCH  59  60
ENDBRANCH  58  59
ENDBRANCH  57  58
ENDBRANCH  56  57
ENDBRANCH  55  56
ENDBRANCH  54  55
ENDBRANCH  53  54
ENDBRANCH  52  53
ENDBRANCH  51  52
ENDBRANCH  50  51
ENDBRANCH  49  50
ENDBRANCH  48  49
ENDBRANCH  46  48
ENDBRANCH  45  46
ENDBRANCH  44  45
ENDBRANCH   1  44
TORSDOF 44
