REMARK WARNING: 32 MAX_TORS EXCEEDED!!!
REMARK  45 active torsions:
REMARK  status: ('A' for Active; 'I' for Inactive)
REMARK    1  A    between atoms: P_1  and  O_2 
REMARK    2  A    between atoms: P_1  and  O_8 
REMARK    3  A    between atoms: O_2  and  C_15 
REMARK    4  A    between atoms: O_3  and  C_16 
REMARK    5  A    between atoms: O_4  and  C_17 
REMARK    6  A    between atoms: O_5  and  C_18 
REMARK    7  A    between atoms: O_6  and  C_19 
REMARK    8  A    between atoms: O_7  and  C_20 
REMARK    9  A    between atoms: O_8  and  C_21 
REMARK   10  A    between atoms: O_11  and  C_37 
REMARK   11  A    between atoms: O_11  and  C_22 
REMARK   12  A    between atoms: O_12  and  C_23 
REMARK   13  A    between atoms: O_12  and  C_40 
REMARK   14  A    between atoms: C_21  and  C_22 
REMARK   15  A    between atoms: C_22  and  C_23 
REMARK   16  A    between atoms: C_24  and  C_25 
REMARK   17  A    between atoms: C_24  and  C_26 
REMARK   18  A    between atoms: C_25  and  C_27 
REMARK   19  A    between atoms: C_26  and  C_28 
REMARK   20  A    between atoms: C_27  and  C_29 
REMARK   21  A    between atoms: C_28  and  C_30 
REMARK   22  A    between atoms: C_29  and  C_31 
REMARK   23  A    between atoms: C_30  and  C_32 
REMARK   24  A    between atoms: C_31  and  C_33 
REMARK   25  A    between atoms: C_32  and  C_34 
REMARK   26  A    between atoms: C_33  and  C_36 
REMARK   27  A    between atoms: C_34  and  C_35 
REMARK   28  A    between atoms: C_35  and  C_40 
REMARK   29  A    between atoms: C_36  and  C_43 
REMARK   30  A    between atoms: C_37  and  C_38 
REMARK   31  A    between atoms: C_38  and  C_39 
REMARK   32  A    between atoms: C_39  and  C_41 
REMARK   33  A    between atoms: C_41  and  C_42 
REMARK   34  A    between atoms: C_42  and  C_44 
REMARK   35  A    between atoms: C_44  and  C_45 
REMARK   36  A    between atoms: C_45  and  C_48 
REMARK   37  A    between atoms: C_46  and  C_47 
REMARK   38  A    between atoms: C_46  and  C_49 
REMARK   39  A    between atoms: C_47  and  C_50 
REMARK   40  A    between atoms: C_48  and  C_54 
REMARK   41  A    between atoms: C_49  and  C_52 
REMARK   42  A    between atoms: C_50  and  C_53 
REMARK   43  A    between atoms: C_52  and  C_55 
REMARK   44  A    between atoms: C_53  and  C_56 
REMARK   45  A    between atoms: C_54  and  C_55 
ROOT
ATOM      1  P   UNK d   1       5.135  -5.845   0.000  0.00  0.00     0.419 P 
ATOM      2  O   UNK d   1       4.635  -4.979   0.000  0.00  0.00    -0.624 OA
ATOM      3  O   UNK d   1       5.635  -6.711   0.000  0.00  0.00    -0.624 OA
ENDROOT
BRANCH   1   4
ATOM      4  O   UNK d   1       4.269  -6.345   0.000  0.00  0.00    -0.241 OA
BRANCH   4   5
ATOM      5  C   UNK d   1       4.269  -7.345   0.000  0.00  0.00     0.153 A 
ATOM      6  C   UNK d   1       3.403  -7.845   0.000  0.00  0.00     0.139 A 
ATOM      7  C   UNK d   1       3.403  -8.845   0.000  0.00  0.00     0.138 A 
ATOM      8  C   UNK d   1       4.269  -9.345   0.000  0.00  0.00     0.138 A 
ATOM      9  C   UNK d   1       5.135  -8.845   0.000  0.00  0.00     0.138 A 
ATOM     10  C   UNK d   1       5.135  -7.845   0.000  0.00  0.00     0.139 A 
BRANCH   6  11
ATOM     11  O   UNK d   1       2.537  -7.345   0.000  0.00  0.00    -0.355 OA
ATOM     12  H   UNK d   1       2.000  -7.655   0.000  0.00  0.00     0.218 HD
ENDBRANCH   6  11
BRANCH   7  13
ATOM     13  O   UNK d   1       2.537  -9.345   0.000  0.00  0.00    -0.356 OA
ATOM     14  H   UNK d   1       2.537  -9.965   0.000  0.00  0.00     0.218 HD
ENDBRANCH   7  13
BRANCH   8  15
ATOM     15  O   UNK d   1       4.269 -10.345   0.000  0.00  0.00    -0.356 OA
ATOM     16  H   UNK d   1       3.732 -10.655   0.000  0.00  0.00     0.218 HD
ENDBRANCH   8  15
BRANCH   9  17
ATOM     17  O   UNK d   1       6.001  -9.345   0.000  0.00  0.00    -0.356 OA
ATOM     18  H   UNK d   1       6.001  -9.965   0.000  0.00  0.00     0.218 HD
ENDBRANCH   9  17
BRANCH  10  19
ATOM     19  O   UNK d   1       6.001  -7.345   0.000  0.00  0.00    -0.355 OA
ATOM     20  H   UNK d   1       6.538  -7.655   0.000  0.00  0.00     0.218 HD
ENDBRANCH  10  19
ENDBRANCH   4   5
ENDBRANCH   1   4
BRANCH   1  21
ATOM     21  O   UNK d   1       6.001  -5.345   0.000  0.00  0.00    -0.241 OA
BRANCH  21  22
ATOM     22  C   UNK d   1       6.001  -4.345   0.000  0.00  0.00     0.155 C 
BRANCH  22  23
ATOM     23  C   UNK d   1       6.867  -3.845   0.000  0.00  0.00     0.153 C 
BRANCH  23  24
ATOM     24  O   UNK d   1       6.867  -2.845   0.000  0.00  0.00    -0.269 OA
BRANCH  24  25
ATOM     25  C   UNK d   1       7.733  -2.345   0.000  0.00  0.00     0.300 C 
ATOM     26  O   UNK d   1       8.599  -2.845   0.000  0.00  0.00    -0.259 OA
BRANCH  25  27
ATOM     27  C   UNK d   1       7.733  -1.345   0.000  0.00  0.00     0.069 C 
BRANCH  27  28
ATOM     28  C   UNK d   1       8.599  -0.845   0.000  0.00  0.00     0.005 C 
BRANCH  28  29
ATOM     29  C   UNK d   1       8.599   0.155   0.000  0.00  0.00     0.000 C 
BRANCH  29  30
ATOM     30  C   UNK d   1       9.465   0.655   0.000  0.00  0.00     0.000 C 
BRANCH  30  31
ATOM     31  C   UNK d   1       9.465   1.655   0.000  0.00  0.00     0.000 C 
BRANCH  31  32
ATOM     32  C   UNK d   1      10.331   2.155   0.000  0.00  0.00     0.000 C 
BRANCH  32  33
ATOM     33  C   UNK d   1      10.331   3.155   0.000  0.00  0.00     0.000 C 
BRANCH  33  34
ATOM     34  C   UNK d   1      11.197   3.655   0.000  0.00  0.00     0.000 C 
BRANCH  34  35
ATOM     35  C   UNK d   1      11.197   4.655   0.000  0.00  0.00     0.000 C 
BRANCH  35  36
ATOM     36  C   UNK d   1      10.331   5.155   0.000  0.00  0.00     0.000 C 
BRANCH  36  37
ATOM     37  C   UNK d   1      10.331   6.155   0.000  0.00  0.00     0.000 C 
BRANCH  37  38
ATOM     38  C   UNK d   1       9.465   6.655   0.000  0.00  0.00     0.000 C 
BRANCH  38  39
ATOM     39  C   UNK d   1       9.465   7.655   0.000  0.00  0.00     0.000 C 
BRANCH  39  40
ATOM     40  C   UNK d   1       8.599   8.155   0.000  0.00  0.00     0.000 C 
BRANCH  40  41
ATOM     41  C   UNK d   1       8.599   9.155   0.000  0.00  0.00     0.000 C 
BRANCH  41  42
ATOM     42  C   UNK d   1       7.733   9.655   0.000  0.00  0.00     0.000 C 
ATOM     43  C   UNK d   1       7.733  10.655   0.000  0.00  0.00     0.000 C 
ENDBRANCH  41  42
ENDBRANCH  40  41
ENDBRANCH  39  40
ENDBRANCH  38  39
ENDBRANCH  37  38
ENDBRANCH  36  37
ENDBRANCH  35  36
ENDBRANCH  34  35
ENDBRANCH  33  34
ENDBRANCH  32  33
ENDBRANCH  31  32
ENDBRANCH  30  31
ENDBRANCH  29  30
ENDBRANCH  28  29
ENDBRANCH  27  28
ENDBRANCH  25  27
ENDBRANCH  24  25
ENDBRANCH  23  24
BRANCH  23  44
ATOM     44  C   UNK d   1       7.733  -4.345   0.000  0.00  0.00     0.153 C 
BRANCH  44  45
ATOM     45  O   UNK d   1       8.599  -3.845   0.000  0.00  0.00    -0.269 OA
BRANCH  45  46
ATOM     46  C   UNK d   1       9.465  -4.345   0.000  0.00  0.00     0.300 C 
ATOM     47  O   UNK d   1       9.465  -5.345   0.000  0.00  0.00    -0.259 OA
BRANCH  46  48
ATOM     48  C   UNK d   1      10.331  -3.845   0.000  0.00  0.00     0.069 C 
BRANCH  48  49
ATOM     49  C   UNK d   1      11.197  -4.345   0.000  0.00  0.00     0.005 C 
BRANCH  49  50
ATOM     50  C   UNK d   1      12.063  -3.845   0.000  0.00  0.00     0.000 C 
BRANCH  50  51
ATOM     51  C   UNK d   1      12.929  -4.345   0.000  0.00  0.00     0.000 C 
BRANCH  51  52
ATOM     52  C   UNK d   1      13.795  -3.845   0.000  0.00  0.00     0.000 C 
BRANCH  52  53
ATOM     53  C   UNK d   1      14.661  -4.345   0.000  0.00  0.00     0.000 C 
BRANCH  53  54
ATOM     54  C   UNK d   1      15.527  -3.845   0.000  0.00  0.00     0.000 C 
BRANCH  54  55
ATOM     55  C   UNK d   1      16.393  -4.345   0.000  0.00  0.00     0.000 C 
BRANCH  55  56
ATOM     56  C   UNK d   1      17.259  -3.845   0.000  0.00  0.00     0.000 C 
BRANCH  56  57
ATOM     57  C   UNK d   1      18.125  -4.345   0.000  0.00  0.00     0.000 C 
BRANCH  57  58
ATOM     58  C   UNK d   1      18.991  -3.845   0.000  0.00  0.00     0.000 C 
BRANCH  58  59
ATOM     59  C   UNK d   1      19.857  -4.345   0.000  0.00  0.00     0.000 C 
BRANCH  59  60
ATOM     60  C   UNK d   1      20.723  -3.845   0.000  0.00  0.00     0.000 C 
BRANCH  60  61
ATOM     61  C   UNK d   1      21.590  -4.345   0.000  0.00  0.00     0.000 C 
ATOM     62  C   UNK d   1      22.455  -3.845   0.000  0.00  0.00     0.000 C 
ENDBRANCH  60  61
ENDBRANCH  59  60
ENDBRANCH  58  59
ENDBRANCH  57  58
ENDBRANCH  56  57
ENDBRANCH  55  56
ENDBRANCH  54  55
ENDBRANCH  53  54
ENDBRANCH  52  53
ENDBRANCH  51  52
ENDBRANCH  50  51
ENDBRANCH  49  50
ENDBRANCH  48  49
ENDBRANCH  46  48
ENDBRANCH  45  46
ENDBRANCH  44  45
ENDBRANCH  23  44
ENDBRANCH  22  23
ENDBRANCH  21  22
ENDBRANCH   1  21
TORSDOF 45
