MODEL 1
REMARK VINA RESULT:      -7.4      0.000      0.000
REMARK WARNING: 32 MAX_TORS EXCEEDED!!!
REMARK  44 active torsions:
REMARK  status: ('A' for Active; 'I' for Inactive)
REMARK    1  A    between atoms: P_1  and  O_2 
REMARK    2  A    between atoms: P_1  and  O_8 
REMARK    3  A    between atoms: O_2  and  C_15 
REMARK    4  A    between atoms: O_3  and  C_16 
REMARK    5  A    between atoms: O_4  and  C_17 
REMARK    6  A    between atoms: O_5  and  C_18 
REMARK    7  A    between atoms: O_6  and  C_19 
REMARK    8  A    between atoms: O_7  and  C_20 
REMARK    9  A    between atoms: O_8  and  C_21 
REMARK   10  A    between atoms: O_11  and  C_37 
REMARK   11  A    between atoms: O_11  and  C_22 
REMARK   12  A    between atoms: O_12  and  C_23 
REMARK   13  A    between atoms: O_12  and  C_40 
REMARK   14  A    between atoms: C_21  and  C_22 
REMARK   15  A    between atoms: C_22  and  C_23 
REMARK   16  A    between atoms: C_24  and  C_25 
REMARK   17  A    between atoms: C_24  and  C_26 
REMARK   18  A    between atoms: C_25  and  C_27 
REMARK   19  A    between atoms: C_26  and  C_28 
REMARK   20  A    between atoms: C_27  and  C_29 
REMARK   21  A    between atoms: C_28  and  C_30 
REMARK   22  A    between atoms: C_29  and  C_31 
REMARK   23  A    between atoms: C_30  and  C_32 
REMARK   24  A    between atoms: C_31  and  C_33 
REMARK   25  A    between atoms: C_32  and  C_34 
REMARK   26  A    between atoms: C_33  and  C_36 
REMARK   27  A    between atoms: C_34  and  C_35 
REMARK   28  A    between atoms: C_35  and  C_40 
REMARK   29  A    between atoms: C_36  and  C_43 
REMARK   30  A    between atoms: C_37  and  C_38 
REMARK   31  A    between atoms: C_38  and  C_39 
REMARK   32  A    between atoms: C_39  and  C_41 
REMARK   33  A    between atoms: C_41  and  C_42 
REMARK   34  A    between atoms: C_42  and  C_44 
REMARK   35  A    between atoms: C_44  and  C_45 
REMARK   36  A    between atoms: C_45  and  C_48 
REMARK   37  A    between atoms: C_46  and  C_47 
REMARK   38  A    between atoms: C_46  and  C_49 
REMARK   39  A    between atoms: C_47  and  C_50 
REMARK   40  A    between atoms: C_48  and  C_54 
REMARK   41  A    between atoms: C_49  and  C_52 
REMARK   42  A    between atoms: C_50  and  C_53 
REMARK   43  A    between atoms: C_52  and  C_55 
REMARK   44  A    between atoms: C_53  and  C_56 
ROOT
HETATM    1  C   UNK     0     111.125 141.449 131.631  0.00  0.00     0.184 C 
ENDROOT
BRANCH   1   2
HETATM    2  O   UNK     0     112.347 140.706 131.473  0.00  0.00    -0.299 OA
BRANCH   2   3
HETATM    3  C   UNK     0     112.518 139.375 131.718  0.00  0.00     0.272 C 
HETATM    4  O   UNK     0     113.041 138.973 132.781  0.00  0.00    -0.264 OA
BRANCH   3   5
HETATM    5  C   UNK     0     112.007 138.421 130.715  0.00  0.00     0.096 C 
BRANCH   5   6
HETATM    6  C   UNK     0     112.735 138.438 129.347  0.00  0.00     0.010 C 
BRANCH   6   7
HETATM    7  C   UNK     0     114.159 139.042 129.505  0.00  0.00     0.001 C 
BRANCH   7   8
HETATM    8  C   UNK     0     114.886 139.378 128.175  0.00  0.00     0.000 C 
BRANCH   8   9
HETATM    9  C   UNK     0     115.417 140.839 128.197  0.00  0.00     0.000 C 
BRANCH   9  10
HETATM   10  C   UNK     0     114.436 141.873 128.812  0.00  0.00     0.005 C 
BRANCH  10  11
HETATM   11  C   UNK     0     114.594 143.273 128.150  0.00  0.00     0.026 C 
BRANCH  11  12
HETATM   12  C   UNK     0     114.244 144.355 129.061  0.00  0.00    -0.031 C 
HETATM   13  C   UNK     0     114.737 145.608 129.021  0.00  0.00    -0.031 C 
BRANCH  13  14
HETATM   14  C   UNK     0     115.688 146.128 128.047  0.00  0.00     0.026 C 
BRANCH  14  15
HETATM   15  C   UNK     0     114.983 146.873 126.881  0.00  0.00     0.005 C 
BRANCH  15  16
HETATM   16  C   UNK     0     114.688 148.351 127.245  0.00  0.00     0.000 C 
BRANCH  16  17
HETATM   17  C   UNK     0     114.770 149.303 126.024  0.00  0.00     0.000 C 
BRANCH  17  18
HETATM   18  C   UNK     0     113.418 150.007 125.730  0.00  0.00     0.000 C 
BRANCH  18  19
HETATM   19  C   UNK     0     112.473 150.004 126.961  0.00  0.00     0.000 C 
BRANCH  19  20
HETATM   20  C   UNK     0     111.038 149.520 126.622  0.00  0.00     0.000 C 
HETATM   21  C   UNK     0     110.855 147.997 126.821  0.00  0.00     0.000 C 
ENDBRANCH  19  20
ENDBRANCH  18  19
ENDBRANCH  17  18
ENDBRANCH  16  17
ENDBRANCH  15  16
ENDBRANCH  14  15
ENDBRANCH  13  14
ENDBRANCH  11  12
ENDBRANCH  10  11
ENDBRANCH   9  10
ENDBRANCH   8   9
ENDBRANCH   7   8
ENDBRANCH   6   7
ENDBRANCH   5   6
ENDBRANCH   3   5
ENDBRANCH   2   3
ENDBRANCH   1   2
BRANCH   1  22
HETATM   22  C   UNK     0     111.179 142.376 132.873  0.00  0.00     0.187 C 
BRANCH  22  23
HETATM   23  O   UNK     0     110.202 142.021 133.873  0.00  0.00    -0.268 OA
BRANCH  23  24
HETATM   24  P   UNK     0     108.818 142.824 133.798  0.00  0.00     0.410 P 
HETATM   25  O   UNK     0     108.827 143.906 132.638  0.00  0.00    -0.624 OA
HETATM   26  O   UNK     0     107.752 141.857 133.496  0.00  0.00    -0.624 OA
BRANCH  24  27
HETATM   27  O   UNK     0     108.445 143.523 135.192  0.00  0.00    -0.268 OA
BRANCH  27  28
HETATM   28  C   UNK     0     109.428 144.090 136.096  0.00  0.00     0.185 C 
HETATM   29  C   UNK     0     110.669 144.761 135.426  0.00  0.00     0.170 C 
HETATM   30  C   UNK     0     111.609 145.427 136.468  0.00  0.00     0.169 C 
HETATM   31  C   UNK     0     112.022 144.434 137.590  0.00  0.00     0.169 C 
HETATM   32  C   UNK     0     110.770 143.837 138.297  0.00  0.00     0.169 C 
HETATM   33  C   UNK     0     109.814 143.151 137.282  0.00  0.00     0.170 C 
BRANCH  29  34
HETATM   34  O   UNK     0     110.256 145.742 134.474  0.00  0.00    -0.380 OA
HETATM   35  H   UNK     0     110.941 145.727 133.772  0.00  0.00     0.211 HD
ENDBRANCH  29  34
BRANCH  30  36
HETATM   36  O   UNK     0     112.771 145.912 135.797  0.00  0.00    -0.380 OA
HETATM   37  H   UNK     0     113.037 145.189 135.192  0.00  0.00     0.211 HD
ENDBRANCH  30  36
BRANCH  31  38
HETATM   38  O   UNK     0     112.845 145.110 138.539  0.00  0.00    -0.380 OA
HETATM   39  H   UNK     0     113.715 144.662 138.489  0.00  0.00     0.211 HD
ENDBRANCH  31  38
BRANCH  32  40
HETATM   40  O   UNK     0     111.186 142.879 139.270  0.00  0.00    -0.380 OA
HETATM   41  H   UNK     0     111.461 142.093 138.754  0.00  0.00     0.211 HD
ENDBRANCH  32  40
BRANCH  33  42
HETATM   42  O   UNK     0     108.633 142.695 137.941  0.00  0.00    -0.380 OA
HETATM   43  H   UNK     0     108.462 143.361 138.639  0.00  0.00     0.211 HD
ENDBRANCH  33  42
ENDBRANCH  27  28
ENDBRANCH  24  27
ENDBRANCH  23  24
ENDBRANCH  22  23
ENDBRANCH   1  22
BRANCH   1  44
HETATM   44  C   UNK     0     110.903 142.278 130.325  0.00  0.00     0.184 C 
BRANCH  44  45
HETATM   45  O   UNK     0     110.843 141.414 129.179  0.00  0.00    -0.299 OA
BRANCH  45  46
HETATM   46  C   UNK     0     109.770 140.697 128.743  0.00  0.00     0.272 C 
HETATM   47  O   UNK     0     109.239 139.818 129.459  0.00  0.00    -0.264 OA
BRANCH  46  48
HETATM   48  C   UNK     0     109.339 140.903 127.343  0.00  0.00     0.096 C 
BRANCH  48  49
HETATM   49  C   UNK     0     109.705 139.622 126.543  0.00  0.00     0.010 C 
BRANCH  49  50
HETATM   50  C   UNK     0     111.206 139.438 126.189  0.00  0.00     0.001 C 
BRANCH  50  51
HETATM   51  C   UNK     0     111.660 140.574 125.229  0.00  0.00     0.000 C 
BRANCH  51  52
HETATM   52  C   UNK     0     113.169 140.941 125.264  0.00  0.00     0.000 C 
BRANCH  52  53
HETATM   53  C   UNK     0     114.011 139.819 124.591  0.00  0.00     0.000 C 
BRANCH  53  54
HETATM   54  C   UNK     0     115.051 140.302 123.544  0.00  0.00     0.000 C 
BRANCH  54  55
HETATM   55  C   UNK     0     116.202 141.110 124.209  0.00  0.00     0.000 C 
BRANCH  55  56
HETATM   56  C   UNK     0     116.786 142.215 123.289  0.00  0.00     0.000 C 
BRANCH  56  57
HETATM   57  C   UNK     0     116.450 143.654 123.873  0.00  0.00     0.000 C 
BRANCH  57  58
HETATM   58  C   UNK     0     115.056 143.661 124.548  0.00  0.00     0.000 C 
BRANCH  58  59
HETATM   59  C   UNK     0     114.117 144.778 124.018  0.00  0.00     0.000 C 
BRANCH  59  60
HETATM   60  C   UNK     0     113.862 144.628 122.494  0.00  0.00     0.000 C 
BRANCH  60  61
HETATM   61  C   UNK     0     113.426 143.202 122.073  0.00  0.00     0.000 C 
HETATM   62  C   UNK     0     111.936 142.935 122.387  0.00  0.00     0.000 C 
ENDBRANCH  60  61
ENDBRANCH  59  60
ENDBRANCH  58  59
ENDBRANCH  57  58
ENDBRANCH  56  57
ENDBRANCH  55  56
ENDBRANCH  54  55
ENDBRANCH  53  54
ENDBRANCH  52  53
ENDBRANCH  51  52
ENDBRANCH  50  51
ENDBRANCH  49  50
ENDBRANCH  48  49
ENDBRANCH  46  48
ENDBRANCH  45  46
ENDBRANCH  44  45
ENDBRANCH   1  44
TORSDOF 44
ENDMDL
MODEL 2
REMARK VINA RESULT:      -7.3      1.188      2.399
REMARK WARNING: 32 MAX_TORS EXCEEDED!!!
REMARK  44 active torsions:
REMARK  status: ('A' for Active; 'I' for Inactive)
REMARK    1  A    between atoms: P_1  and  O_2 
REMARK    2  A    between atoms: P_1  and  O_8 
REMARK    3  A    between atoms: O_2  and  C_15 
REMARK    4  A    between atoms: O_3  and  C_16 
REMARK    5  A    between atoms: O_4  and  C_17 
REMARK    6  A    between atoms: O_5  and  C_18 
REMARK    7  A    between atoms: O_6  and  C_19 
REMARK    8  A    between atoms: O_7  and  C_20 
REMARK    9  A    between atoms: O_8  and  C_21 
REMARK   10  A    between atoms: O_11  and  C_37 
REMARK   11  A    between atoms: O_11  and  C_22 
REMARK   12  A    between atoms: O_12  and  C_23 
REMARK   13  A    between atoms: O_12  and  C_40 
REMARK   14  A    between atoms: C_21  and  C_22 
REMARK   15  A    between atoms: C_22  and  C_23 
REMARK   16  A    between atoms: C_24  and  C_25 
REMARK   17  A    between atoms: C_24  and  C_26 
REMARK   18  A    between atoms: C_25  and  C_27 
REMARK   19  A    between atoms: C_26  and  C_28 
REMARK   20  A    between atoms: C_27  and  C_29 
REMARK   21  A    between atoms: C_28  and  C_30 
REMARK   22  A    between atoms: C_29  and  C_31 
REMARK   23  A    between atoms: C_30  and  C_32 
REMARK   24  A    between atoms: C_31  and  C_33 
REMARK   25  A    between atoms: C_32  and  C_34 
REMARK   26  A    between atoms: C_33  and  C_36 
REMARK   27  A    between atoms: C_34  and  C_35 
REMARK   28  A    between atoms: C_35  and  C_40 
REMARK   29  A    between atoms: C_36  and  C_43 
REMARK   30  A    between atoms: C_37  and  C_38 
REMARK   31  A    between atoms: C_38  and  C_39 
REMARK   32  A    between atoms: C_39  and  C_41 
REMARK   33  A    between atoms: C_41  and  C_42 
REMARK   34  A    between atoms: C_42  and  C_44 
REMARK   35  A    between atoms: C_44  and  C_45 
REMARK   36  A    between atoms: C_45  and  C_48 
REMARK   37  A    between atoms: C_46  and  C_47 
REMARK   38  A    between atoms: C_46  and  C_49 
REMARK   39  A    between atoms: C_47  and  C_50 
REMARK   40  A    between atoms: C_48  and  C_54 
REMARK   41  A    between atoms: C_49  and  C_52 
REMARK   42  A    between atoms: C_50  and  C_53 
REMARK   43  A    between atoms: C_52  and  C_55 
REMARK   44  A    between atoms: C_53  and  C_56 
ROOT
HETATM    1  C   UNK     0     110.832 141.335 130.482  0.00  0.00     0.184 C 
ENDROOT
BRANCH   1   2
HETATM    2  O   UNK     0     112.039 140.552 130.456  0.00  0.00    -0.299 OA
BRANCH   2   3
HETATM    3  C   UNK     0     112.120 139.202 130.286  0.00  0.00     0.272 C 
HETATM    4  O   UNK     0     111.614 138.412 131.116  0.00  0.00    -0.264 OA
BRANCH   3   5
HETATM    5  C   UNK     0     112.766 138.700 129.058  0.00  0.00     0.096 C 
BRANCH   5   6
HETATM    6  C   UNK     0     114.296 138.473 129.156  0.00  0.00     0.010 C 
BRANCH   6   7
HETATM    7  C   UNK     0     115.051 139.820 128.973  0.00  0.00     0.001 C 
BRANCH   7   8
HETATM    8  C   UNK     0     114.981 140.428 127.547  0.00  0.00     0.000 C 
BRANCH   8   9
HETATM    9  C   UNK     0     114.948 141.982 127.617  0.00  0.00     0.000 C 
BRANCH   9  10
HETATM   10  C   UNK     0     113.654 142.571 128.241  0.00  0.00     0.005 C 
BRANCH  10  11
HETATM   11  C   UNK     0     113.606 144.120 128.096  0.00  0.00     0.026 C 
BRANCH  11  12
HETATM   12  C   UNK     0     114.191 144.799 129.244  0.00  0.00    -0.031 C 
HETATM   13  C   UNK     0     115.129 145.764 129.195  0.00  0.00    -0.031 C 
BRANCH  13  14
HETATM   14  C   UNK     0     115.716 146.332 127.988  0.00  0.00     0.026 C 
BRANCH  14  15
HETATM   15  C   UNK     0     114.941 147.583 127.493  0.00  0.00     0.005 C 
BRANCH  15  16
HETATM   16  C   UNK     0     114.603 147.482 125.982  0.00  0.00     0.000 C 
BRANCH  16  17
HETATM   17  C   UNK     0     113.129 147.083 125.717  0.00  0.00     0.000 C 
BRANCH  17  18
HETATM   18  C   UNK     0     112.195 147.445 126.903  0.00  0.00     0.000 C 
BRANCH  18  19
HETATM   19  C   UNK     0     110.913 148.188 126.437  0.00  0.00     0.000 C 
BRANCH  19  20
HETATM   20  C   UNK     0     111.159 149.691 126.139  0.00  0.00     0.000 C 
HETATM   21  C   UNK     0     111.993 150.392 127.237  0.00  0.00     0.000 C 
ENDBRANCH  19  20
ENDBRANCH  18  19
ENDBRANCH  17  18
ENDBRANCH  16  17
ENDBRANCH  15  16
ENDBRANCH  14  15
ENDBRANCH  13  14
ENDBRANCH  11  12
ENDBRANCH  10  11
ENDBRANCH   9  10
ENDBRANCH   8   9
ENDBRANCH   7   8
ENDBRANCH   6   7
ENDBRANCH   5   6
ENDBRANCH   3   5
ENDBRANCH   2   3
ENDBRANCH   1   2
BRANCH   1  22
HETATM   22  C   UNK     0     111.015 142.634 131.308  0.00  0.00     0.187 C 
BRANCH  22  23
HETATM   23  O   UNK     0     109.758 143.212 131.721  0.00  0.00    -0.268 OA
BRANCH  23  24
HETATM   24  P   UNK     0     109.292 142.853 133.210  0.00  0.00     0.410 P 
HETATM   25  O   UNK     0     108.046 141.871 133.218  0.00  0.00    -0.624 OA
HETATM   26  O   UNK     0     110.406 142.164 133.877  0.00  0.00    -0.624 OA
BRANCH  24  27
HETATM   27  O   UNK     0     108.957 144.163 134.073  0.00  0.00    -0.268 OA
BRANCH  27  28
HETATM   28  C   UNK     0     109.323 144.323 135.467  0.00  0.00     0.185 C 
HETATM   29  C   UNK     0     110.742 144.915 135.739  0.00  0.00     0.170 C 
HETATM   30  C   UNK     0     111.001 145.143 137.254  0.00  0.00     0.169 C 
HETATM   31  C   UNK     0     110.740 143.855 138.085  0.00  0.00     0.169 C 
HETATM   32  C   UNK     0     109.294 143.326 137.859  0.00  0.00     0.169 C 
HETATM   33  C   UNK     0     109.007 143.075 136.352  0.00  0.00     0.170 C 
BRANCH  29  34
HETATM   34  O   UNK     0     110.913 146.150 135.045  0.00  0.00    -0.380 OA
HETATM   35  H   UNK     0     111.806 146.100 134.642  0.00  0.00     0.211 HD
ENDBRANCH  29  34
BRANCH  30  36
HETATM   36  O   UNK     0     112.351 145.570 137.432  0.00  0.00    -0.380 OA
HETATM   37  H   UNK     0     112.412 146.426 136.958  0.00  0.00     0.211 HD
ENDBRANCH  30  36
BRANCH  31  38
HETATM   38  O   UNK     0     110.949 144.135 139.468  0.00  0.00    -0.380 OA
HETATM   39  H   UNK     0     110.081 144.443 139.801  0.00  0.00     0.211 HD
ENDBRANCH  31  38
BRANCH  32  40
HETATM   40  O   UNK     0     109.115 142.107 138.579  0.00  0.00    -0.380 OA
HETATM   41  H   UNK     0     108.224 141.788 138.325  0.00  0.00     0.211 HD
ENDBRANCH  32  40
BRANCH  33  42
HETATM   42  O   UNK     0     107.649 142.681 136.163  0.00  0.00    -0.380 OA
HETATM   43  H   UNK     0     107.247 143.405 135.640  0.00  0.00     0.211 HD
ENDBRANCH  33  42
ENDBRANCH  27  28
ENDBRANCH  24  27
ENDBRANCH  23  24
ENDBRANCH  22  23
ENDBRANCH   1  22
BRANCH   1  44
HETATM   44  C   UNK     0     110.450 141.664 129.003  0.00  0.00     0.184 C 
BRANCH  44  45
HETATM   45  O   UNK     0     109.950 140.494 128.336  0.00  0.00    -0.299 OA
BRANCH  45  46
HETATM   46  C   UNK     0     109.868 140.284 126.992  0.00  0.00     0.272 C 
HETATM   47  O   UNK     0     108.806 140.491 126.363  0.00  0.00    -0.264 OA
BRANCH  46  48
HETATM   48  C   UNK     0     111.042 139.677 126.328  0.00  0.00     0.096 C 
BRANCH  48  49
HETATM   49  C   UNK     0     111.864 140.824 125.678  0.00  0.00     0.010 C 
BRANCH  49  50
HETATM   50  C   UNK     0     112.005 140.779 124.132  0.00  0.00     0.001 C 
BRANCH  50  51
HETATM   51  C   UNK     0     112.261 142.212 123.587  0.00  0.00     0.000 C 
BRANCH  51  52
HETATM   52  C   UNK     0     113.521 142.395 122.697  0.00  0.00     0.000 C 
BRANCH  52  53
HETATM   53  C   UNK     0     114.262 143.710 123.078  0.00  0.00     0.000 C 
BRANCH  53  54
HETATM   54  C   UNK     0     114.618 143.864 124.581  0.00  0.00     0.000 C 
BRANCH  54  55
HETATM   55  C   UNK     0     116.057 144.424 124.775  0.00  0.00     0.000 C 
BRANCH  55  56
HETATM   56  C   UNK     0     116.849 144.549 123.446  0.00  0.00     0.000 C 
BRANCH  56  57
HETATM   57  C   UNK     0     118.399 144.316 123.703  0.00  0.00     0.000 C 
BRANCH  57  58
HETATM   58  C   UNK     0     118.861 142.967 123.096  0.00  0.00     0.000 C 
BRANCH  58  59
HETATM   59  C   UNK     0     117.686 142.064 122.633  0.00  0.00     0.000 C 
BRANCH  59  60
HETATM   60  C   UNK     0     117.594 140.771 123.487  0.00  0.00     0.000 C 
BRANCH  60  61
HETATM   61  C   UNK     0     116.211 140.562 124.154  0.00  0.00     0.000 C 
HETATM   62  C   UNK     0     115.477 139.323 123.590  0.00  0.00     0.000 C 
ENDBRANCH  60  61
ENDBRANCH  59  60
ENDBRANCH  58  59
ENDBRANCH  57  58
ENDBRANCH  56  57
ENDBRANCH  55  56
ENDBRANCH  54  55
ENDBRANCH  53  54
ENDBRANCH  52  53
ENDBRANCH  51  52
ENDBRANCH  50  51
ENDBRANCH  49  50
ENDBRANCH  48  49
ENDBRANCH  46  48
ENDBRANCH  45  46
ENDBRANCH  44  45
ENDBRANCH   1  44
TORSDOF 44
ENDMDL
MODEL 3
REMARK VINA RESULT:      -7.3      1.860      3.674
REMARK WARNING: 32 MAX_TORS EXCEEDED!!!
REMARK  44 active torsions:
REMARK  status: ('A' for Active; 'I' for Inactive)
REMARK    1  A    between atoms: P_1  and  O_2 
REMARK    2  A    between atoms: P_1  and  O_8 
REMARK    3  A    between atoms: O_2  and  C_15 
REMARK    4  A    between atoms: O_3  and  C_16 
REMARK    5  A    between atoms: O_4  and  C_17 
REMARK    6  A    between atoms: O_5  and  C_18 
REMARK    7  A    between atoms: O_6  and  C_19 
REMARK    8  A    between atoms: O_7  and  C_20 
REMARK    9  A    between atoms: O_8  and  C_21 
REMARK   10  A    between atoms: O_11  and  C_37 
REMARK   11  A    between atoms: O_11  and  C_22 
REMARK   12  A    between atoms: O_12  and  C_23 
REMARK   13  A    between atoms: O_12  and  C_40 
REMARK   14  A    between atoms: C_21  and  C_22 
REMARK   15  A    between atoms: C_22  and  C_23 
REMARK   16  A    between atoms: C_24  and  C_25 
REMARK   17  A    between atoms: C_24  and  C_26 
REMARK   18  A    between atoms: C_25  and  C_27 
REMARK   19  A    between atoms: C_26  and  C_28 
REMARK   20  A    between atoms: C_27  and  C_29 
REMARK   21  A    between atoms: C_28  and  C_30 
REMARK   22  A    between atoms: C_29  and  C_31 
REMARK   23  A    between atoms: C_30  and  C_32 
REMARK   24  A    between atoms: C_31  and  C_33 
REMARK   25  A    between atoms: C_32  and  C_34 
REMARK   26  A    between atoms: C_33  and  C_36 
REMARK   27  A    between atoms: C_34  and  C_35 
REMARK   28  A    between atoms: C_35  and  C_40 
REMARK   29  A    between atoms: C_36  and  C_43 
REMARK   30  A    between atoms: C_37  and  C_38 
REMARK   31  A    between atoms: C_38  and  C_39 
REMARK   32  A    between atoms: C_39  and  C_41 
REMARK   33  A    between atoms: C_41  and  C_42 
REMARK   34  A    between atoms: C_42  and  C_44 
REMARK   35  A    between atoms: C_44  and  C_45 
REMARK   36  A    between atoms: C_45  and  C_48 
REMARK   37  A    between atoms: C_46  and  C_47 
REMARK   38  A    between atoms: C_46  and  C_49 
REMARK   39  A    between atoms: C_47  and  C_50 
REMARK   40  A    between atoms: C_48  and  C_54 
REMARK   41  A    between atoms: C_49  and  C_52 
REMARK   42  A    between atoms: C_50  and  C_53 
REMARK   43  A    between atoms: C_52  and  C_55 
REMARK   44  A    between atoms: C_53  and  C_56 
ROOT
HETATM    1  C   UNK     0     111.225 141.583 131.437  0.00  0.00     0.184 C 
ENDROOT
BRANCH   1   2
HETATM    2  O   UNK     0     112.478 140.928 131.170  0.00  0.00    -0.299 OA
BRANCH   2   3
HETATM    3  C   UNK     0     112.792 139.636 131.472  0.00  0.00     0.272 C 
HETATM    4  O   UNK     0     112.976 139.272 132.655  0.00  0.00    -0.264 OA
BRANCH   3   5
HETATM    5  C   UNK     0     112.844 138.664 130.362  0.00  0.00     0.096 C 
BRANCH   5   6
HETATM    6  C   UNK     0     113.288 139.241 128.993  0.00  0.00     0.010 C 
BRANCH   6   7
HETATM    7  C   UNK     0     114.839 139.307 128.917  0.00  0.00     0.001 C 
BRANCH   7   8
HETATM    8  C   UNK     0     115.420 140.670 128.449  0.00  0.00     0.000 C 
BRANCH   8   9
HETATM    9  C   UNK     0     114.273 141.662 128.104  0.00  0.00     0.000 C 
BRANCH   9  10
HETATM   10  C   UNK     0     114.283 142.974 128.934  0.00  0.00     0.005 C 
BRANCH  10  11
HETATM   11  C   UNK     0     115.627 143.742 128.770  0.00  0.00     0.026 C 
BRANCH  11  12
HETATM   12  C   UNK     0     115.546 145.106 129.273  0.00  0.00    -0.031 C 
HETATM   13  C   UNK     0     114.992 146.152 128.630  0.00  0.00    -0.031 C 
BRANCH  13  14
HETATM   14  C   UNK     0     114.344 146.114 127.326  0.00  0.00     0.026 C 
BRANCH  14  15
HETATM   15  C   UNK     0     115.349 146.351 126.166  0.00  0.00     0.005 C 
BRANCH  15  16
HETATM   16  C   UNK     0     115.718 145.026 125.451  0.00  0.00     0.000 C 
BRANCH  16  17
HETATM   17  C   UNK     0     114.477 144.172 125.083  0.00  0.00     0.000 C 
BRANCH  17  18
HETATM   18  C   UNK     0     113.905 144.529 123.685  0.00  0.00     0.000 C 
BRANCH  18  19
HETATM   19  C   UNK     0     114.695 143.850 122.534  0.00  0.00     0.000 C 
BRANCH  19  20
HETATM   20  C   UNK     0     113.813 142.915 121.664  0.00  0.00     0.000 C 
HETATM   21  C   UNK     0     112.396 143.482 121.420  0.00  0.00     0.000 C 
ENDBRANCH  19  20
ENDBRANCH  18  19
ENDBRANCH  17  18
ENDBRANCH  16  17
ENDBRANCH  15  16
ENDBRANCH  14  15
ENDBRANCH  13  14
ENDBRANCH  11  12
ENDBRANCH  10  11
ENDBRANCH   9  10
ENDBRANCH   8   9
ENDBRANCH   7   8
ENDBRANCH   6   7
ENDBRANCH   5   6
ENDBRANCH   3   5
ENDBRANCH   2   3
ENDBRANCH   1   2
BRANCH   1  22
HETATM   22  C   UNK     0     111.325 142.521 132.668  0.00  0.00     0.187 C 
BRANCH  22  23
HETATM   23  O   UNK     0     110.478 142.099 133.758  0.00  0.00    -0.268 OA
BRANCH  23  24
HETATM   24  P   UNK     0     109.029 142.779 133.806  0.00  0.00     0.410 P 
HETATM   25  O   UNK     0     108.901 143.969 132.765  0.00  0.00    -0.624 OA
HETATM   26  O   UNK     0     108.039 141.756 133.438  0.00  0.00    -0.624 OA
BRANCH  24  27
HETATM   27  O   UNK     0     108.652 143.299 135.276  0.00  0.00    -0.268 OA
BRANCH  27  28
HETATM   28  C   UNK     0     109.573 144.014 136.138  0.00  0.00     0.185 C 
HETATM   29  C   UNK     0     110.743 144.759 135.422  0.00  0.00     0.170 C 
HETATM   30  C   UNK     0     111.613 145.576 136.416  0.00  0.00     0.169 C 
HETATM   31  C   UNK     0     112.119 144.700 137.596  0.00  0.00     0.169 C 
HETATM   32  C   UNK     0     110.931 144.028 138.344  0.00  0.00     0.169 C 
HETATM   33  C   UNK     0     110.047 143.192 137.378  0.00  0.00     0.170 C 
BRANCH  29  34
HETATM   34  O   UNK     0     110.239 145.634 134.413  0.00  0.00    -0.380 OA
HETATM   35  H   UNK     0     109.670 146.277 134.888  0.00  0.00     0.211 HD
ENDBRANCH  29  34
BRANCH  30  36
HETATM   36  O   UNK     0     112.724 146.129 135.711  0.00  0.00    -0.380 OA
HETATM   37  H   UNK     0     112.389 146.963 135.321  0.00  0.00     0.211 HD
ENDBRANCH  30  36
BRANCH  31  38
HETATM   38  O   UNK     0     112.872 145.509 138.497  0.00  0.00    -0.380 OA
HETATM   39  H   UNK     0     112.627 145.193 139.392  0.00  0.00     0.211 HD
ENDBRANCH  31  38
BRANCH  32  40
HETATM   40  O   UNK     0     111.436 143.178 139.373  0.00  0.00    -0.380 OA
HETATM   41  H   UNK     0     111.461 143.736 140.178  0.00  0.00     0.211 HD
ENDBRANCH  32  40
BRANCH  33  42
HETATM   42  O   UNK     0     108.916 142.664 138.069  0.00  0.00    -0.380 OA
HETATM   43  H   UNK     0     108.171 143.250 137.817  0.00  0.00     0.211 HD
ENDBRANCH  33  42
ENDBRANCH  27  28
ENDBRANCH  24  27
ENDBRANCH  23  24
ENDBRANCH  22  23
ENDBRANCH   1  22
BRANCH   1  44
HETATM   44  C   UNK     0     110.827 142.384 130.157  0.00  0.00     0.184 C 
BRANCH  44  45
HETATM   45  O   UNK     0     110.822 141.529 129.003  0.00  0.00    -0.299 OA
BRANCH  45  46
HETATM   46  C   UNK     0     109.870 140.617 128.658  0.00  0.00     0.272 C 
HETATM   47  O   UNK     0     109.460 139.762 129.474  0.00  0.00    -0.264 OA
BRANCH  46  48
HETATM   48  C   UNK     0     109.437 140.590 127.244  0.00  0.00     0.096 C 
BRANCH  48  49
HETATM   49  C   UNK     0     110.169 139.409 126.548  0.00  0.00     0.010 C 
BRANCH  49  50
HETATM   50  C   UNK     0     111.678 139.618 126.247  0.00  0.00     0.001 C 
BRANCH  50  51
HETATM   51  C   UNK     0     111.875 140.933 125.442  0.00  0.00     0.000 C 
BRANCH  51  52
HETATM   52  C   UNK     0     112.765 140.835 124.172  0.00  0.00     0.000 C 
BRANCH  52  53
HETATM   53  C   UNK     0     114.000 139.930 124.450  0.00  0.00     0.000 C 
BRANCH  53  54
HETATM   54  C   UNK     0     115.354 140.676 124.599  0.00  0.00     0.000 C 
BRANCH  54  55
HETATM   55  C   UNK     0     116.504 139.704 124.991  0.00  0.00     0.000 C 
BRANCH  55  56
HETATM   56  C   UNK     0     117.691 139.725 123.992  0.00  0.00     0.000 C 
BRANCH  56  57
HETATM   57  C   UNK     0     118.589 138.427 124.173  0.00  0.00     0.000 C 
BRANCH  57  58
HETATM   58  C   UNK     0     120.039 138.812 124.560  0.00  0.00     0.000 C 
BRANCH  58  59
HETATM   59  C   UNK     0     120.980 138.985 123.337  0.00  0.00     0.000 C 
BRANCH  59  60
HETATM   60  C   UNK     0     122.020 140.113 123.578  0.00  0.00     0.000 C 
BRANCH  60  61
HETATM   61  C   UNK     0     121.784 140.909 124.886  0.00  0.00     0.000 C 
HETATM   62  C   UNK     0     123.110 141.245 125.607  0.00  0.00     0.000 C 
ENDBRANCH  60  61
ENDBRANCH  59  60
ENDBRANCH  58  59
ENDBRANCH  57  58
ENDBRANCH  56  57
ENDBRANCH  55  56
ENDBRANCH  54  55
ENDBRANCH  53  54
ENDBRANCH  52  53
ENDBRANCH  51  52
ENDBRANCH  50  51
ENDBRANCH  49  50
ENDBRANCH  48  49
ENDBRANCH  46  48
ENDBRANCH  45  46
ENDBRANCH  44  45
ENDBRANCH   1  44
TORSDOF 44
ENDMDL
MODEL 4
REMARK VINA RESULT:      -7.3      1.443      2.070
REMARK WARNING: 32 MAX_TORS EXCEEDED!!!
REMARK  44 active torsions:
REMARK  status: ('A' for Active; 'I' for Inactive)
REMARK    1  A    between atoms: P_1  and  O_2 
REMARK    2  A    between atoms: P_1  and  O_8 
REMARK    3  A    between atoms: O_2  and  C_15 
REMARK    4  A    between atoms: O_3  and  C_16 
REMARK    5  A    between atoms: O_4  and  C_17 
REMARK    6  A    between atoms: O_5  and  C_18 
REMARK    7  A    between atoms: O_6  and  C_19 
REMARK    8  A    between atoms: O_7  and  C_20 
REMARK    9  A    between atoms: O_8  and  C_21 
REMARK   10  A    between atoms: O_11  and  C_37 
REMARK   11  A    between atoms: O_11  and  C_22 
REMARK   12  A    between atoms: O_12  and  C_23 
REMARK   13  A    between atoms: O_12  and  C_40 
REMARK   14  A    between atoms: C_21  and  C_22 
REMARK   15  A    between atoms: C_22  and  C_23 
REMARK   16  A    between atoms: C_24  and  C_25 
REMARK   17  A    between atoms: C_24  and  C_26 
REMARK   18  A    between atoms: C_25  and  C_27 
REMARK   19  A    between atoms: C_26  and  C_28 
REMARK   20  A    between atoms: C_27  and  C_29 
REMARK   21  A    between atoms: C_28  and  C_30 
REMARK   22  A    between atoms: C_29  and  C_31 
REMARK   23  A    between atoms: C_30  and  C_32 
REMARK   24  A    between atoms: C_31  and  C_33 
REMARK   25  A    between atoms: C_32  and  C_34 
REMARK   26  A    between atoms: C_33  and  C_36 
REMARK   27  A    between atoms: C_34  and  C_35 
REMARK   28  A    between atoms: C_35  and  C_40 
REMARK   29  A    between atoms: C_36  and  C_43 
REMARK   30  A    between atoms: C_37  and  C_38 
REMARK   31  A    between atoms: C_38  and  C_39 
REMARK   32  A    between atoms: C_39  and  C_41 
REMARK   33  A    between atoms: C_41  and  C_42 
REMARK   34  A    between atoms: C_42  and  C_44 
REMARK   35  A    between atoms: C_44  and  C_45 
REMARK   36  A    between atoms: C_45  and  C_48 
REMARK   37  A    between atoms: C_46  and  C_47 
REMARK   38  A    between atoms: C_46  and  C_49 
REMARK   39  A    between atoms: C_47  and  C_50 
REMARK   40  A    between atoms: C_48  and  C_54 
REMARK   41  A    between atoms: C_49  and  C_52 
REMARK   42  A    between atoms: C_50  and  C_53 
REMARK   43  A    between atoms: C_52  and  C_55 
REMARK   44  A    between atoms: C_53  and  C_56 
ROOT
HETATM    1  C   UNK     0     110.724 141.565 130.519  0.00  0.00     0.184 C 
ENDROOT
BRANCH   1   2
HETATM    2  O   UNK     0     111.870 140.707 130.663  0.00  0.00    -0.299 OA
BRANCH   2   3
HETATM    3  C   UNK     0     111.876 139.454 131.202  0.00  0.00     0.272 C 
HETATM    4  O   UNK     0     111.974 139.281 132.438  0.00  0.00    -0.264 OA
BRANCH   3   5
HETATM    5  C   UNK     0     111.695 138.311 130.287  0.00  0.00     0.096 C 
BRANCH   5   6
HETATM    6  C   UNK     0     112.808 138.128 129.223  0.00  0.00     0.010 C 
BRANCH   6   7
HETATM    7  C   UNK     0     114.006 139.069 129.532  0.00  0.00     0.001 C 
BRANCH   7   8
HETATM    8  C   UNK     0     115.086 139.151 128.420  0.00  0.00     0.000 C 
BRANCH   8   9
HETATM    9  C   UNK     0     115.487 140.631 128.157  0.00  0.00     0.000 C 
BRANCH   9  10
HETATM   10  C   UNK     0     114.585 141.678 128.862  0.00  0.00     0.005 C 
BRANCH  10  11
HETATM   11  C   UNK     0     114.713 143.081 128.199  0.00  0.00     0.026 C 
BRANCH  11  12
HETATM   12  C   UNK     0     115.940 143.763 128.589  0.00  0.00    -0.031 C 
HETATM   13  C   UNK     0     116.031 145.038 129.012  0.00  0.00    -0.031 C 
BRANCH  13  14
HETATM   14  C   UNK     0     114.923 145.968 129.188  0.00  0.00     0.026 C 
BRANCH  14  15
HETATM   15  C   UNK     0     114.632 146.783 127.899  0.00  0.00     0.005 C 
BRANCH  15  16
HETATM   16  C   UNK     0     113.396 146.231 127.142  0.00  0.00     0.000 C 
BRANCH  16  17
HETATM   17  C   UNK     0     112.984 147.110 125.934  0.00  0.00     0.000 C 
BRANCH  17  18
HETATM   18  C   UNK     0     112.726 148.587 126.337  0.00  0.00     0.000 C 
BRANCH  18  19
HETATM   19  C   UNK     0     111.228 148.862 126.636  0.00  0.00     0.000 C 
BRANCH  19  20
HETATM   20  C   UNK     0     110.920 150.368 126.851  0.00  0.00     0.000 C 
HETATM   21  C   UNK     0     110.169 150.645 128.174  0.00  0.00     0.000 C 
ENDBRANCH  19  20
ENDBRANCH  18  19
ENDBRANCH  17  18
ENDBRANCH  16  17
ENDBRANCH  15  16
ENDBRANCH  14  15
ENDBRANCH  13  14
ENDBRANCH  11  12
ENDBRANCH  10  11
ENDBRANCH   9  10
ENDBRANCH   8   9
ENDBRANCH   7   8
ENDBRANCH   6   7
ENDBRANCH   5   6
ENDBRANCH   3   5
ENDBRANCH   2   3
ENDBRANCH   1   2
BRANCH   1  22
HETATM   22  C   UNK     0     110.753 142.728 131.544  0.00  0.00     0.187 C 
BRANCH  22  23
HETATM   23  O   UNK     0     109.432 143.194 131.893  0.00  0.00    -0.268 OA
BRANCH  23  24
HETATM   24  P   UNK     0     108.983 142.923 133.405  0.00  0.00     0.410 P 
HETATM   25  O   UNK     0     107.672 142.033 133.481  0.00  0.00    -0.624 OA
HETATM   26  O   UNK     0     110.064 142.179 134.069  0.00  0.00    -0.624 OA
BRANCH  24  27
HETATM   27  O   UNK     0     108.766 144.282 134.228  0.00  0.00    -0.268 OA
BRANCH  27  28
HETATM   28  C   UNK     0     109.445 144.587 135.472  0.00  0.00     0.185 C 
HETATM   29  C   UNK     0     110.955 144.197 135.543  0.00  0.00     0.170 C 
HETATM   30  C   UNK     0     111.617 144.654 136.872  0.00  0.00     0.169 C 
HETATM   31  C   UNK     0     110.829 144.149 138.113  0.00  0.00     0.169 C 
HETATM   32  C   UNK     0     109.345 144.615 138.062  0.00  0.00     0.169 C 
HETATM   33  C   UNK     0     108.649 144.162 136.748  0.00  0.00     0.170 C 
BRANCH  29  34
HETATM   34  O   UNK     0     111.671 144.763 134.446  0.00  0.00    -0.380 OA
HETATM   35  H   UNK     0     112.402 144.136 134.261  0.00  0.00     0.211 HD
ENDBRANCH  29  34
BRANCH  30  36
HETATM   36  O   UNK     0     112.956 144.162 136.914  0.00  0.00    -0.380 OA
HETATM   37  H   UNK     0     113.469 144.858 137.375  0.00  0.00     0.211 HD
ENDBRANCH  30  36
BRANCH  31  38
HETATM   38  O   UNK     0     111.454 144.634 139.300  0.00  0.00    -0.380 OA
HETATM   39  H   UNK     0     110.925 145.414 139.568  0.00  0.00     0.211 HD
ENDBRANCH  31  38
BRANCH  32  40
HETATM   40  O   UNK     0     108.638 144.073 139.177  0.00  0.00    -0.380 OA
HETATM   41  H   UNK     0     107.692 144.104 138.919  0.00  0.00     0.211 HD
ENDBRANCH  32  40
BRANCH  33  42
HETATM   42  O   UNK     0     107.321 144.679 136.684  0.00  0.00    -0.380 OA
HETATM   43  H   UNK     0     107.366 145.405 136.027  0.00  0.00     0.211 HD
ENDBRANCH  33  42
ENDBRANCH  27  28
ENDBRANCH  24  27
ENDBRANCH  23  24
ENDBRANCH  22  23
ENDBRANCH   1  22
BRANCH   1  44
HETATM   44  C   UNK     0     110.722 142.111 129.056  0.00  0.00     0.184 C 
BRANCH  44  45
HETATM   45  O   UNK     0     111.232 141.125 128.144  0.00  0.00    -0.299 OA
BRANCH  45  46
HETATM   46  C   UNK     0     110.512 140.308 127.326  0.00  0.00     0.272 C 
HETATM   47  O   UNK     0     109.338 139.976 127.605  0.00  0.00    -0.264 OA
BRANCH  46  48
HETATM   48  C   UNK     0     111.214 139.722 126.164  0.00  0.00     0.096 C 
BRANCH  48  49
HETATM   49  C   UNK     0     112.537 140.512 125.963  0.00  0.00     0.010 C 
BRANCH  49  50
HETATM   50  C   UNK     0     113.107 140.545 124.519  0.00  0.00     0.001 C 
BRANCH  50  51
HETATM   51  C   UNK     0     112.332 141.596 123.675  0.00  0.00     0.000 C 
BRANCH  51  52
HETATM   52  C   UNK     0     113.175 142.426 122.668  0.00  0.00     0.000 C 
BRANCH  52  53
HETATM   53  C   UNK     0     114.644 141.912 122.645  0.00  0.00     0.000 C 
BRANCH  53  54
HETATM   54  C   UNK     0     115.715 142.933 123.114  0.00  0.00     0.000 C 
BRANCH  54  55
HETATM   55  C   UNK     0     115.171 143.858 124.241  0.00  0.00     0.000 C 
BRANCH  55  56
HETATM   56  C   UNK     0     116.288 144.635 124.988  0.00  0.00     0.000 C 
BRANCH  56  57
HETATM   57  C   UNK     0     116.196 146.186 124.659  0.00  0.00     0.000 C 
BRANCH  57  58
HETATM   58  C   UNK     0     117.016 146.529 123.390  0.00  0.00     0.000 C 
BRANCH  58  59
HETATM   59  C   UNK     0     116.143 147.008 122.200  0.00  0.00     0.000 C 
BRANCH  59  60
HETATM   60  C   UNK     0     114.713 147.393 122.665  0.00  0.00     0.000 C 
BRANCH  60  61
HETATM   61  C   UNK     0     113.591 146.589 121.962  0.00  0.00     0.000 C 
HETATM   62  C   UNK     0     114.159 145.544 120.974  0.00  0.00     0.000 C 
ENDBRANCH  60  61
ENDBRANCH  59  60
ENDBRANCH  58  59
ENDBRANCH  57  58
ENDBRANCH  56  57
ENDBRANCH  55  56
ENDBRANCH  54  55
ENDBRANCH  53  54
ENDBRANCH  52  53
ENDBRANCH  51  52
ENDBRANCH  50  51
ENDBRANCH  49  50
ENDBRANCH  48  49
ENDBRANCH  46  48
ENDBRANCH  45  46
ENDBRANCH  44  45
ENDBRANCH   1  44
TORSDOF 44
ENDMDL
MODEL 5
REMARK VINA RESULT:      -7.2      1.376      4.864
REMARK WARNING: 32 MAX_TORS EXCEEDED!!!
REMARK  44 active torsions:
REMARK  status: ('A' for Active; 'I' for Inactive)
REMARK    1  A    between atoms: P_1  and  O_2 
REMARK    2  A    between atoms: P_1  and  O_8 
REMARK    3  A    between atoms: O_2  and  C_15 
REMARK    4  A    between atoms: O_3  and  C_16 
REMARK    5  A    between atoms: O_4  and  C_17 
REMARK    6  A    between atoms: O_5  and  C_18 
REMARK    7  A    between atoms: O_6  and  C_19 
REMARK    8  A    between atoms: O_7  and  C_20 
REMARK    9  A    between atoms: O_8  and  C_21 
REMARK   10  A    between atoms: O_11  and  C_37 
REMARK   11  A    between atoms: O_11  and  C_22 
REMARK   12  A    between atoms: O_12  and  C_23 
REMARK   13  A    between atoms: O_12  and  C_40 
REMARK   14  A    between atoms: C_21  and  C_22 
REMARK   15  A    between atoms: C_22  and  C_23 
REMARK   16  A    between atoms: C_24  and  C_25 
REMARK   17  A    between atoms: C_24  and  C_26 
REMARK   18  A    between atoms: C_25  and  C_27 
REMARK   19  A    between atoms: C_26  and  C_28 
REMARK   20  A    between atoms: C_27  and  C_29 
REMARK   21  A    between atoms: C_28  and  C_30 
REMARK   22  A    between atoms: C_29  and  C_31 
REMARK   23  A    between atoms: C_30  and  C_32 
REMARK   24  A    between atoms: C_31  and  C_33 
REMARK   25  A    between atoms: C_32  and  C_34 
REMARK   26  A    between atoms: C_33  and  C_36 
REMARK   27  A    between atoms: C_34  and  C_35 
REMARK   28  A    between atoms: C_35  and  C_40 
REMARK   29  A    between atoms: C_36  and  C_43 
REMARK   30  A    between atoms: C_37  and  C_38 
REMARK   31  A    between atoms: C_38  and  C_39 
REMARK   32  A    between atoms: C_39  and  C_41 
REMARK   33  A    between atoms: C_41  and  C_42 
REMARK   34  A    between atoms: C_42  and  C_44 
REMARK   35  A    between atoms: C_44  and  C_45 
REMARK   36  A    between atoms: C_45  and  C_48 
REMARK   37  A    between atoms: C_46  and  C_47 
REMARK   38  A    between atoms: C_46  and  C_49 
REMARK   39  A    between atoms: C_47  and  C_50 
REMARK   40  A    between atoms: C_48  and  C_54 
REMARK   41  A    between atoms: C_49  and  C_52 
REMARK   42  A    between atoms: C_50  and  C_53 
REMARK   43  A    between atoms: C_52  and  C_55 
REMARK   44  A    between atoms: C_53  and  C_56 
ROOT
HETATM    1  C   UNK     0     111.391 141.722 131.200  0.00  0.00     0.184 C 
ENDROOT
BRANCH   1   2
HETATM    2  O   UNK     0     110.120 141.319 130.658  0.00  0.00    -0.299 OA
BRANCH   2   3
HETATM    3  C   UNK     0     109.924 140.570 129.536  0.00  0.00     0.272 C 
HETATM    4  O   UNK     0     109.477 139.403 129.605  0.00  0.00    -0.264 OA
BRANCH   3   5
HETATM    5  C   UNK     0     110.195 141.203 128.230  0.00  0.00     0.096 C 
BRANCH   5   6
HETATM    6  C   UNK     0     109.723 140.400 126.991  0.00  0.00     0.010 C 
BRANCH   6   7
HETATM    7  C   UNK     0     110.916 139.625 126.366  0.00  0.00     0.001 C 
BRANCH   7   8
HETATM    8  C   UNK     0     111.916 140.494 125.555  0.00  0.00     0.000 C 
BRANCH   8   9
HETATM    9  C   UNK     0     113.275 139.755 125.394  0.00  0.00     0.000 C 
BRANCH   9  10
HETATM   10  C   UNK     0     114.201 140.341 124.295  0.00  0.00     0.005 C 
BRANCH  10  11
HETATM   11  C   UNK     0     115.542 139.556 124.201  0.00  0.00     0.026 C 
BRANCH  11  12
HETATM   12  C   UNK     0     116.701 140.436 124.273  0.00  0.00    -0.031 C 
HETATM   13  C   UNK     0     117.780 140.385 123.469  0.00  0.00    -0.031 C 
BRANCH  13  14
HETATM   14  C   UNK     0     117.983 139.462 122.360  0.00  0.00     0.026 C 
BRANCH  14  15
HETATM   15  C   UNK     0     118.062 140.196 120.994  0.00  0.00     0.005 C 
BRANCH  15  16
HETATM   16  C   UNK     0     117.417 141.605 121.067  0.00  0.00     0.000 C 
BRANCH  16  17
HETATM   17  C   UNK     0     115.912 141.601 120.692  0.00  0.00     0.000 C 
BRANCH  17  18
HETATM   18  C   UNK     0     115.117 142.716 121.422  0.00  0.00     0.000 C 
BRANCH  18  19
HETATM   19  C   UNK     0     113.795 143.071 120.690  0.00  0.00     0.000 C 
BRANCH  19  20
HETATM   20  C   UNK     0     112.745 143.733 121.624  0.00  0.00     0.000 C 
HETATM   21  C   UNK     0     112.032 142.714 122.541  0.00  0.00     0.000 C 
ENDBRANCH  19  20
ENDBRANCH  18  19
ENDBRANCH  17  18
ENDBRANCH  16  17
ENDBRANCH  15  16
ENDBRANCH  14  15
ENDBRANCH  13  14
ENDBRANCH  11  12
ENDBRANCH  10  11
ENDBRANCH   9  10
ENDBRANCH   8   9
ENDBRANCH   7   8
ENDBRANCH   6   7
ENDBRANCH   5   6
ENDBRANCH   3   5
ENDBRANCH   2   3
ENDBRANCH   1   2
BRANCH   1  22
HETATM   22  C   UNK     0     111.227 142.831 132.271  0.00  0.00     0.187 C 
BRANCH  22  23
HETATM   23  O   UNK     0     110.608 142.347 133.482  0.00  0.00    -0.268 OA
BRANCH  23  24
HETATM   24  P   UNK     0     109.080 142.777 133.692  0.00  0.00     0.410 P 
HETATM   25  O   UNK     0     108.683 144.010 132.776  0.00  0.00    -0.624 OA
HETATM   26  O   UNK     0     108.233 141.641 133.301  0.00  0.00    -0.624 OA
BRANCH  24  27
HETATM   27  O   UNK     0     108.750 143.111 135.226  0.00  0.00    -0.268 OA
BRANCH  27  28
HETATM   28  C   UNK     0     109.601 143.922 136.074  0.00  0.00     0.185 C 
HETATM   29  C   UNK     0     110.760 144.682 135.355  0.00  0.00     0.170 C 
HETATM   30  C   UNK     0     111.550 145.601 136.327  0.00  0.00     0.169 C 
HETATM   31  C   UNK     0     112.053 144.824 137.576  0.00  0.00     0.169 C 
HETATM   32  C   UNK     0     110.871 144.139 138.322  0.00  0.00     0.169 C 
HETATM   33  C   UNK     0     110.067 143.202 137.379  0.00  0.00     0.170 C 
BRANCH  29  34
HETATM   34  O   UNK     0     110.253 145.469 134.277  0.00  0.00    -0.380 OA
HETATM   35  H   UNK     0     109.396 145.057 134.036  0.00  0.00     0.211 HD
ENDBRANCH  29  34
BRANCH  30  36
HETATM   36  O   UNK     0     112.659 146.167 135.629  0.00  0.00    -0.380 OA
HETATM   37  H   UNK     0     112.265 146.809 135.002  0.00  0.00     0.211 HD
ENDBRANCH  30  36
BRANCH  31  38
HETATM   38  O   UNK     0     112.730 145.724 138.452  0.00  0.00    -0.380 OA
HETATM   39  H   UNK     0     112.554 145.385 139.354  0.00  0.00     0.211 HD
ENDBRANCH  31  38
BRANCH  32  40
HETATM   40  O   UNK     0     111.378 143.378 139.418  0.00  0.00    -0.380 OA
HETATM   41  H   UNK     0     111.280 142.442 139.146  0.00  0.00     0.211 HD
ENDBRANCH  32  40
BRANCH  33  42
HETATM   42  O   UNK     0     108.937 142.660 138.061  0.00  0.00    -0.380 OA
HETATM   43  H   UNK     0     109.237 142.538 138.986  0.00  0.00     0.211 HD
ENDBRANCH  33  42
ENDBRANCH  27  28
ENDBRANCH  24  27
ENDBRANCH  23  24
ENDBRANCH  22  23
ENDBRANCH   1  22
BRANCH   1  44
HETATM   44  C   UNK     0     112.068 140.453 131.809  0.00  0.00     0.184 C 
BRANCH  44  45
HETATM   45  O   UNK     0     113.082 139.945 130.928  0.00  0.00    -0.299 OA
BRANCH  45  46
HETATM   46  C   UNK     0     112.984 138.877 130.087  0.00  0.00     0.272 C 
HETATM   47  O   UNK     0     112.196 137.934 130.322  0.00  0.00    -0.264 OA
BRANCH  46  48
HETATM   48  C   UNK     0     113.938 138.812 128.960  0.00  0.00     0.096 C 
BRANCH  48  49
HETATM   49  C   UNK     0     114.986 139.941 129.160  0.00  0.00     0.010 C 
BRANCH  49  50
HETATM   50  C   UNK     0     115.439 140.694 127.880  0.00  0.00     0.001 C 
BRANCH  50  51
HETATM   51  C   UNK     0     115.067 142.200 127.999  0.00  0.00     0.000 C 
BRANCH  51  52
HETATM   52  C   UNK     0     113.605 142.517 128.414  0.00  0.00     0.000 C 
BRANCH  52  53
HETATM   53  C   UNK     0     113.538 143.893 129.139  0.00  0.00     0.000 C 
BRANCH  53  54
HETATM   54  C   UNK     0     114.860 144.707 129.149  0.00  0.00     0.000 C 
BRANCH  54  55
HETATM   55  C   UNK     0     114.748 145.992 128.279  0.00  0.00     0.000 C 
BRANCH  55  56
HETATM   56  C   UNK     0     113.568 145.948 127.271  0.00  0.00     0.000 C 
BRANCH  56  57
HETATM   57  C   UNK     0     113.934 146.760 125.956  0.00  0.00     0.000 C 
BRANCH  57  58
HETATM   58  C   UNK     0     113.931 145.829 124.717  0.00  0.00     0.000 C 
BRANCH  58  59
HETATM   59  C   UNK     0     114.172 144.335 125.065  0.00  0.00     0.000 C 
BRANCH  59  60
HETATM   60  C   UNK     0     115.673 143.958 124.934  0.00  0.00     0.000 C 
BRANCH  60  61
HETATM   61  C   UNK     0     116.455 144.852 123.939  0.00  0.00     0.000 C 
HETATM   62  C   UNK     0     117.851 144.273 123.615  0.00  0.00     0.000 C 
ENDBRANCH  60  61
ENDBRANCH  59  60
ENDBRANCH  58  59
ENDBRANCH  57  58
ENDBRANCH  56  57
ENDBRANCH  55  56
ENDBRANCH  54  55
ENDBRANCH  53  54
ENDBRANCH  52  53
ENDBRANCH  51  52
ENDBRANCH  50  51
ENDBRANCH  49  50
ENDBRANCH  48  49
ENDBRANCH  46  48
ENDBRANCH  45  46
ENDBRANCH  44  45
ENDBRANCH   1  44
TORSDOF 44
ENDMDL
MODEL 6
REMARK VINA RESULT:      -7.2      1.343      4.071
REMARK WARNING: 32 MAX_TORS EXCEEDED!!!
REMARK  44 active torsions:
REMARK  status: ('A' for Active; 'I' for Inactive)
REMARK    1  A    between atoms: P_1  and  O_2 
REMARK    2  A    between atoms: P_1  and  O_8 
REMARK    3  A    between atoms: O_2  and  C_15 
REMARK    4  A    between atoms: O_3  and  C_16 
REMARK    5  A    between atoms: O_4  and  C_17 
REMARK    6  A    between atoms: O_5  and  C_18 
REMARK    7  A    between atoms: O_6  and  C_19 
REMARK    8  A    between atoms: O_7  and  C_20 
REMARK    9  A    between atoms: O_8  and  C_21 
REMARK   10  A    between atoms: O_11  and  C_37 
REMARK   11  A    between atoms: O_11  and  C_22 
REMARK   12  A    between atoms: O_12  and  C_23 
REMARK   13  A    between atoms: O_12  and  C_40 
REMARK   14  A    between atoms: C_21  and  C_22 
REMARK   15  A    between atoms: C_22  and  C_23 
REMARK   16  A    between atoms: C_24  and  C_25 
REMARK   17  A    between atoms: C_24  and  C_26 
REMARK   18  A    between atoms: C_25  and  C_27 
REMARK   19  A    between atoms: C_26  and  C_28 
REMARK   20  A    between atoms: C_27  and  C_29 
REMARK   21  A    between atoms: C_28  and  C_30 
REMARK   22  A    between atoms: C_29  and  C_31 
REMARK   23  A    between atoms: C_30  and  C_32 
REMARK   24  A    between atoms: C_31  and  C_33 
REMARK   25  A    between atoms: C_32  and  C_34 
REMARK   26  A    between atoms: C_33  and  C_36 
REMARK   27  A    between atoms: C_34  and  C_35 
REMARK   28  A    between atoms: C_35  and  C_40 
REMARK   29  A    between atoms: C_36  and  C_43 
REMARK   30  A    between atoms: C_37  and  C_38 
REMARK   31  A    between atoms: C_38  and  C_39 
REMARK   32  A    between atoms: C_39  and  C_41 
REMARK   33  A    between atoms: C_41  and  C_42 
REMARK   34  A    between atoms: C_42  and  C_44 
REMARK   35  A    between atoms: C_44  and  C_45 
REMARK   36  A    between atoms: C_45  and  C_48 
REMARK   37  A    between atoms: C_46  and  C_47 
REMARK   38  A    between atoms: C_46  and  C_49 
REMARK   39  A    between atoms: C_47  and  C_50 
REMARK   40  A    between atoms: C_48  and  C_54 
REMARK   41  A    between atoms: C_49  and  C_52 
REMARK   42  A    between atoms: C_50  and  C_53 
REMARK   43  A    between atoms: C_52  and  C_55 
REMARK   44  A    between atoms: C_53  and  C_56 
ROOT
HETATM    1  C   UNK     0     111.031 141.990 131.333  0.00  0.00     0.184 C 
ENDROOT
BRANCH   1   2
HETATM    2  O   UNK     0     110.199 142.044 130.161  0.00  0.00    -0.299 OA
BRANCH   2   3
HETATM    3  C   UNK     0     110.598 141.809 128.878  0.00  0.00     0.272 C 
HETATM    4  O   UNK     0     111.647 142.316 128.422  0.00  0.00    -0.264 OA
BRANCH   3   5
HETATM    5  C   UNK     0     109.786 140.883 128.065  0.00  0.00     0.096 C 
BRANCH   5   6
HETATM    6  C   UNK     0     110.556 139.682 127.457  0.00  0.00     0.010 C 
BRANCH   6   7
HETATM    7  C   UNK     0     111.199 140.087 126.102  0.00  0.00     0.001 C 
BRANCH   7   8
HETATM    8  C   UNK     0     112.688 139.682 125.929  0.00  0.00     0.000 C 
BRANCH   8   9
HETATM    9  C   UNK     0     113.445 140.736 125.072  0.00  0.00     0.000 C 
BRANCH   9  10
HETATM   10  C   UNK     0     112.640 141.281 123.861  0.00  0.00     0.005 C 
BRANCH  10  11
HETATM   11  C   UNK     0     113.516 142.201 122.962  0.00  0.00     0.026 C 
BRANCH  11  12
HETATM   12  C   UNK     0     113.337 143.612 123.280  0.00  0.00    -0.031 C 
HETATM   13  C   UNK     0     114.135 144.347 124.077  0.00  0.00    -0.031 C 
BRANCH  13  14
HETATM   14  C   UNK     0     115.341 143.883 124.751  0.00  0.00     0.026 C 
BRANCH  14  15
HETATM   15  C   UNK     0     116.573 144.769 124.423  0.00  0.00     0.005 C 
BRANCH  15  16
HETATM   16  C   UNK     0     116.192 146.271 124.356  0.00  0.00     0.000 C 
BRANCH  16  17
HETATM   17  C   UNK     0     117.426 147.203 124.238  0.00  0.00     0.000 C 
BRANCH  17  18
HETATM   18  C   UNK     0     117.167 148.609 124.843  0.00  0.00     0.000 C 
BRANCH  18  19
HETATM   19  C   UNK     0     118.022 148.870 126.112  0.00  0.00     0.000 C 
BRANCH  19  20
HETATM   20  C   UNK     0     117.295 149.753 127.161  0.00  0.00     0.000 C 
HETATM   21  C   UNK     0     116.171 150.617 126.543  0.00  0.00     0.000 C 
ENDBRANCH  19  20
ENDBRANCH  18  19
ENDBRANCH  17  18
ENDBRANCH  16  17
ENDBRANCH  15  16
ENDBRANCH  14  15
ENDBRANCH  13  14
ENDBRANCH  11  12
ENDBRANCH  10  11
ENDBRANCH   9  10
ENDBRANCH   8   9
ENDBRANCH   7   8
ENDBRANCH   6   7
ENDBRANCH   5   6
ENDBRANCH   3   5
ENDBRANCH   2   3
ENDBRANCH   1   2
BRANCH   1  22
HETATM   22  C   UNK     0     110.800 143.218 132.252  0.00  0.00     0.187 C 
BRANCH  22  23
HETATM   23  O   UNK     0     109.404 143.561 132.381  0.00  0.00    -0.268 OA
BRANCH  23  24
HETATM   24  P   UNK     0     108.724 143.164 133.775  0.00  0.00     0.410 P 
HETATM   25  O   UNK     0     107.696 144.268 134.264  0.00  0.00    -0.624 OA
HETATM   26  O   UNK     0     107.975 141.916 133.573  0.00  0.00    -0.624 OA
BRANCH  24  27
HETATM   27  O   UNK     0     109.811 142.887 134.922  0.00  0.00    -0.268 OA
BRANCH  27  28
HETATM   28  C   UNK     0     110.209 143.872 135.908  0.00  0.00     0.185 C 
HETATM   29  C   UNK     0     111.104 145.041 135.387  0.00  0.00     0.170 C 
HETATM   30  C   UNK     0     111.392 146.095 136.491  0.00  0.00     0.169 C 
HETATM   31  C   UNK     0     111.979 145.443 137.774  0.00  0.00     0.169 C 
HETATM   32  C   UNK     0     111.033 144.334 138.321  0.00  0.00     0.169 C 
HETATM   33  C   UNK     0     110.735 143.255 137.243  0.00  0.00     0.170 C 
BRANCH  29  34
HETATM   34  O   UNK     0     110.488 145.686 134.273  0.00  0.00    -0.380 OA
HETATM   35  H   UNK     0     109.729 146.182 134.647  0.00  0.00     0.211 HD
ENDBRANCH  29  34
BRANCH  30  36
HETATM   36  O   UNK     0     112.306 147.063 135.977  0.00  0.00    -0.380 OA
HETATM   37  H   UNK     0     113.152 146.582 135.865  0.00  0.00     0.211 HD
ENDBRANCH  30  36
BRANCH  31  38
HETATM   38  O   UNK     0     112.181 146.448 138.766  0.00  0.00    -0.380 OA
HETATM   39  H   UNK     0     112.771 146.038 139.431  0.00  0.00     0.211 HD
ENDBRANCH  31  38
BRANCH  32  40
HETATM   40  O   UNK     0     111.637 143.711 139.454  0.00  0.00    -0.380 OA
HETATM   41  H   UNK     0     110.919 143.191 139.873  0.00  0.00     0.211 HD
ENDBRANCH  32  40
BRANCH  33  42
HETATM   42  O   UNK     0     109.795 142.303 137.739  0.00  0.00    -0.380 OA
HETATM   43  H   UNK     0     109.652 141.681 136.996  0.00  0.00     0.211 HD
ENDBRANCH  33  42
ENDBRANCH  27  28
ENDBRANCH  24  27
ENDBRANCH  23  24
ENDBRANCH  22  23
ENDBRANCH   1  22
BRANCH   1  44
HETATM   44  C   UNK     0     110.703 140.661 132.085  0.00  0.00     0.184 C 
BRANCH  44  45
HETATM   45  O   UNK     0     111.909 139.962 132.431  0.00  0.00    -0.299 OA
BRANCH  45  46
HETATM   46  C   UNK     0     112.274 138.707 132.045  0.00  0.00     0.272 C 
HETATM   47  O   UNK     0     113.079 138.026 132.719  0.00  0.00    -0.264 OA
BRANCH  46  48
HETATM   48  C   UNK     0     111.788 138.234 130.731  0.00  0.00     0.096 C 
BRANCH  48  49
HETATM   49  C   UNK     0     112.986 138.270 129.742  0.00  0.00     0.010 C 
BRANCH  49  50
HETATM   50  C   UNK     0     113.658 139.653 129.527  0.00  0.00     0.001 C 
BRANCH  50  51
HETATM   51  C   UNK     0     115.016 139.467 128.793  0.00  0.00     0.000 C 
BRANCH  51  52
HETATM   52  C   UNK     0     115.671 140.754 128.222  0.00  0.00     0.000 C 
BRANCH  52  53
HETATM   53  C   UNK     0     114.669 141.944 128.291  0.00  0.00     0.000 C 
BRANCH  53  54
HETATM   54  C   UNK     0     115.312 143.351 128.414  0.00  0.00     0.000 C 
BRANCH  54  55
HETATM   55  C   UNK     0     114.461 144.294 129.313  0.00  0.00     0.000 C 
BRANCH  55  56
HETATM   56  C   UNK     0     115.040 145.731 129.415  0.00  0.00     0.000 C 
BRANCH  56  57
HETATM   57  C   UNK     0     115.479 146.252 127.981  0.00  0.00     0.000 C 
BRANCH  57  58
HETATM   58  C   UNK     0     114.521 147.364 127.484  0.00  0.00     0.000 C 
BRANCH  58  59
HETATM   59  C   UNK     0     113.316 146.823 126.667  0.00  0.00     0.000 C 
BRANCH  59  60
HETATM   60  C   UNK     0     112.976 147.755 125.474  0.00  0.00     0.000 C 
BRANCH  60  61
HETATM   61  C   UNK     0     111.722 148.635 125.708  0.00  0.00     0.000 C 
HETATM   62  C   UNK     0     110.787 148.036 126.785  0.00  0.00     0.000 C 
ENDBRANCH  60  61
ENDBRANCH  59  60
ENDBRANCH  58  59
ENDBRANCH  57  58
ENDBRANCH  56  57
ENDBRANCH  55  56
ENDBRANCH  54  55
ENDBRANCH  53  54
ENDBRANCH  52  53
ENDBRANCH  51  52
ENDBRANCH  50  51
ENDBRANCH  49  50
ENDBRANCH  48  49
ENDBRANCH  46  48
ENDBRANCH  45  46
ENDBRANCH  44  45
ENDBRANCH   1  44
TORSDOF 44
ENDMDL
MODEL 7
REMARK VINA RESULT:      -7.1      1.513      2.114
REMARK WARNING: 32 MAX_TORS EXCEEDED!!!
REMARK  44 active torsions:
REMARK  status: ('A' for Active; 'I' for Inactive)
REMARK    1  A    between atoms: P_1  and  O_2 
REMARK    2  A    between atoms: P_1  and  O_8 
REMARK    3  A    between atoms: O_2  and  C_15 
REMARK    4  A    between atoms: O_3  and  C_16 
REMARK    5  A    between atoms: O_4  and  C_17 
REMARK    6  A    between atoms: O_5  and  C_18 
REMARK    7  A    between atoms: O_6  and  C_19 
REMARK    8  A    between atoms: O_7  and  C_20 
REMARK    9  A    between atoms: O_8  and  C_21 
REMARK   10  A    between atoms: O_11  and  C_37 
REMARK   11  A    between atoms: O_11  and  C_22 
REMARK   12  A    between atoms: O_12  and  C_23 
REMARK   13  A    between atoms: O_12  and  C_40 
REMARK   14  A    between atoms: C_21  and  C_22 
REMARK   15  A    between atoms: C_22  and  C_23 
REMARK   16  A    between atoms: C_24  and  C_25 
REMARK   17  A    between atoms: C_24  and  C_26 
REMARK   18  A    between atoms: C_25  and  C_27 
REMARK   19  A    between atoms: C_26  and  C_28 
REMARK   20  A    between atoms: C_27  and  C_29 
REMARK   21  A    between atoms: C_28  and  C_30 
REMARK   22  A    between atoms: C_29  and  C_31 
REMARK   23  A    between atoms: C_30  and  C_32 
REMARK   24  A    between atoms: C_31  and  C_33 
REMARK   25  A    between atoms: C_32  and  C_34 
REMARK   26  A    between atoms: C_33  and  C_36 
REMARK   27  A    between atoms: C_34  and  C_35 
REMARK   28  A    between atoms: C_35  and  C_40 
REMARK   29  A    between atoms: C_36  and  C_43 
REMARK   30  A    between atoms: C_37  and  C_38 
REMARK   31  A    between atoms: C_38  and  C_39 
REMARK   32  A    between atoms: C_39  and  C_41 
REMARK   33  A    between atoms: C_41  and  C_42 
REMARK   34  A    between atoms: C_42  and  C_44 
REMARK   35  A    between atoms: C_44  and  C_45 
REMARK   36  A    between atoms: C_45  and  C_48 
REMARK   37  A    between atoms: C_46  and  C_47 
REMARK   38  A    between atoms: C_46  and  C_49 
REMARK   39  A    between atoms: C_47  and  C_50 
REMARK   40  A    between atoms: C_48  and  C_54 
REMARK   41  A    between atoms: C_49  and  C_52 
REMARK   42  A    between atoms: C_50  and  C_53 
REMARK   43  A    between atoms: C_52  and  C_55 
REMARK   44  A    between atoms: C_53  and  C_56 
ROOT
HETATM    1  C   UNK     0     110.467 140.793 130.329  0.00  0.00     0.184 C 
ENDROOT
BRANCH   1   2
HETATM    2  O   UNK     0     110.816 139.398 130.378  0.00  0.00    -0.299 OA
BRANCH   2   3
HETATM    3  C   UNK     0     112.074 138.886 130.499  0.00  0.00     0.272 C 
HETATM    4  O   UNK     0     112.631 138.792 131.616  0.00  0.00    -0.264 OA
BRANCH   3   5
HETATM    5  C   UNK     0     112.733 138.384 129.278  0.00  0.00     0.096 C 
BRANCH   5   6
HETATM    6  C   UNK     0     114.210 138.819 129.093  0.00  0.00     0.010 C 
BRANCH   6   7
HETATM    7  C   UNK     0     114.328 140.366 129.177  0.00  0.00     0.001 C 
BRANCH   7   8
HETATM    8  C   UNK     0     115.502 140.984 128.370  0.00  0.00     0.000 C 
BRANCH   8   9
HETATM    9  C   UNK     0     115.404 142.537 128.365  0.00  0.00     0.000 C 
BRANCH   9  10
HETATM   10  C   UNK     0     113.968 143.091 128.164  0.00  0.00     0.005 C 
BRANCH  10  11
HETATM   11  C   UNK     0     113.679 144.285 129.121  0.00  0.00     0.026 C 
BRANCH  11  12
HETATM   12  C   UNK     0     114.863 145.100 129.357  0.00  0.00    -0.031 C 
HETATM   13  C   UNK     0     115.261 146.146 128.609  0.00  0.00    -0.031 C 
BRANCH  13  14
HETATM   14  C   UNK     0     114.572 146.679 127.440  0.00  0.00     0.026 C 
BRANCH  14  15
HETATM   15  C   UNK     0     115.400 146.499 126.139  0.00  0.00     0.005 C 
BRANCH  15  16
HETATM   16  C   UNK     0     115.112 147.631 125.119  0.00  0.00     0.000 C 
BRANCH  16  17
HETATM   17  C   UNK     0     113.834 147.378 124.279  0.00  0.00     0.000 C 
BRANCH  17  18
HETATM   18  C   UNK     0     112.968 148.656 124.116  0.00  0.00     0.000 C 
BRANCH  18  19
HETATM   19  C   UNK     0     112.515 149.238 125.481  0.00  0.00     0.000 C 
BRANCH  19  20
HETATM   20  C   UNK     0     110.985 149.114 125.714  0.00  0.00     0.000 C 
HETATM   21  C   UNK     0     110.626 148.073 126.800  0.00  0.00     0.000 C 
ENDBRANCH  19  20
ENDBRANCH  18  19
ENDBRANCH  17  18
ENDBRANCH  16  17
ENDBRANCH  15  16
ENDBRANCH  14  15
ENDBRANCH  13  14
ENDBRANCH  11  12
ENDBRANCH  10  11
ENDBRANCH   9  10
ENDBRANCH   8   9
ENDBRANCH   7   8
ENDBRANCH   6   7
ENDBRANCH   5   6
ENDBRANCH   3   5
ENDBRANCH   2   3
ENDBRANCH   1   2
BRANCH   1  22
HETATM   22  C   UNK     0     111.128 141.584 131.488  0.00  0.00     0.187 C 
BRANCH  22  23
HETATM   23  O   UNK     0     110.514 141.314 132.766  0.00  0.00    -0.268 OA
BRANCH  23  24
HETATM   24  P   UNK     0     109.278 142.258 133.148  0.00  0.00     0.410 P 
HETATM   25  O   UNK     0     109.455 143.725 132.570  0.00  0.00    -0.624 OA
HETATM   26  O   UNK     0     108.068 141.684 132.543  0.00  0.00    -0.624 OA
BRANCH  24  27
HETATM   27  O   UNK     0     109.032 142.324 134.732  0.00  0.00    -0.268 OA
BRANCH  27  28
HETATM   28  C   UNK     0     109.624 143.326 135.597  0.00  0.00     0.185 C 
HETATM   29  C   UNK     0     111.169 143.228 135.802  0.00  0.00     0.170 C 
HETATM   30  C   UNK     0     111.722 144.401 136.658  0.00  0.00     0.169 C 
HETATM   31  C   UNK     0     110.965 144.536 138.009  0.00  0.00     0.169 C 
HETATM   32  C   UNK     0     109.436 144.711 137.779  0.00  0.00     0.169 C 
HETATM   33  C   UNK     0     108.849 143.546 136.935  0.00  0.00     0.170 C 
BRANCH  29  34
HETATM   34  O   UNK     0     111.843 143.210 134.544  0.00  0.00    -0.380 OA
HETATM   35  H   UNK     0     112.191 144.119 134.422  0.00  0.00     0.211 HD
ENDBRANCH  29  34
BRANCH  30  36
HETATM   36  O   UNK     0     113.111 144.180 136.900  0.00  0.00    -0.380 OA
HETATM   37  H   UNK     0     113.442 143.728 136.096  0.00  0.00     0.211 HD
ENDBRANCH  30  36
BRANCH  31  38
HETATM   38  O   UNK     0     111.483 145.652 138.731  0.00  0.00    -0.380 OA
HETATM   39  H   UNK     0     111.562 145.344 139.658  0.00  0.00     0.211 HD
ENDBRANCH  31  38
BRANCH  32  40
HETATM   40  O   UNK     0     108.768 144.760 139.039  0.00  0.00    -0.380 OA
HETATM   41  H   UNK     0     108.941 143.889 139.454  0.00  0.00     0.211 HD
ENDBRANCH  32  40
BRANCH  33  42
HETATM   42  O   UNK     0     107.468 143.777 136.660  0.00  0.00    -0.380 OA
HETATM   43  H   UNK     0     106.994 143.426 137.442  0.00  0.00     0.211 HD
ENDBRANCH  33  42
ENDBRANCH  27  28
ENDBRANCH  24  27
ENDBRANCH  23  24
ENDBRANCH  22  23
ENDBRANCH   1  22
BRANCH   1  44
HETATM   44  C   UNK     0     110.926 141.347 128.943  0.00  0.00     0.184 C 
BRANCH  44  45
HETATM   45  O   UNK     0     109.826 141.381 128.020  0.00  0.00    -0.299 OA
BRANCH  45  46
HETATM   46  C   UNK     0     109.517 140.453 127.071  0.00  0.00     0.272 C 
HETATM   47  O   UNK     0     108.349 140.323 126.641  0.00  0.00    -0.264 OA
BRANCH  46  48
HETATM   48  C   UNK     0     110.586 139.515 126.667  0.00  0.00     0.096 C 
BRANCH  48  49
HETATM   49  C   UNK     0     111.404 140.191 125.532  0.00  0.00     0.010 C 
BRANCH  49  50
HETATM   50  C   UNK     0     112.868 140.579 125.876  0.00  0.00     0.001 C 
BRANCH  50  51
HETATM   51  C   UNK     0     113.850 139.695 125.056  0.00  0.00     0.000 C 
BRANCH  51  52
HETATM   52  C   UNK     0     115.306 140.220 124.930  0.00  0.00     0.000 C 
BRANCH  52  53
HETATM   53  C   UNK     0     115.539 140.824 123.514  0.00  0.00     0.000 C 
BRANCH  53  54
HETATM   54  C   UNK     0     115.970 142.315 123.488  0.00  0.00     0.000 C 
BRANCH  54  55
HETATM   55  C   UNK     0     115.316 143.122 124.647  0.00  0.00     0.000 C 
BRANCH  55  56
HETATM   56  C   UNK     0     113.937 143.726 124.270  0.00  0.00     0.000 C 
BRANCH  56  57
HETATM   57  C   UNK     0     113.329 142.973 123.011  0.00  0.00     0.000 C 
BRANCH  57  58
HETATM   58  C   UNK     0     113.070 143.965 121.849  0.00  0.00     0.000 C 
BRANCH  58  59
HETATM   59  C   UNK     0     113.988 143.731 120.619  0.00  0.00     0.000 C 
BRANCH  59  60
HETATM   60  C   UNK     0     113.268 142.895 119.526  0.00  0.00     0.000 C 
BRANCH  60  61
HETATM   61  C   UNK     0     112.720 143.746 118.353  0.00  0.00     0.000 C 
HETATM   62  C   UNK     0     113.461 145.096 118.220  0.00  0.00     0.000 C 
ENDBRANCH  60  61
ENDBRANCH  59  60
ENDBRANCH  58  59
ENDBRANCH  57  58
ENDBRANCH  56  57
ENDBRANCH  55  56
ENDBRANCH  54  55
ENDBRANCH  53  54
ENDBRANCH  52  53
ENDBRANCH  51  52
ENDBRANCH  50  51
ENDBRANCH  49  50
ENDBRANCH  48  49
ENDBRANCH  46  48
ENDBRANCH  45  46
ENDBRANCH  44  45
ENDBRANCH   1  44
TORSDOF 44
ENDMDL
MODEL 8
REMARK VINA RESULT:      -7.1      1.631      3.380
REMARK WARNING: 32 MAX_TORS EXCEEDED!!!
REMARK  44 active torsions:
REMARK  status: ('A' for Active; 'I' for Inactive)
REMARK    1  A    between atoms: P_1  and  O_2 
REMARK    2  A    between atoms: P_1  and  O_8 
REMARK    3  A    between atoms: O_2  and  C_15 
REMARK    4  A    between atoms: O_3  and  C_16 
REMARK    5  A    between atoms: O_4  and  C_17 
REMARK    6  A    between atoms: O_5  and  C_18 
REMARK    7  A    between atoms: O_6  and  C_19 
REMARK    8  A    between atoms: O_7  and  C_20 
REMARK    9  A    between atoms: O_8  and  C_21 
REMARK   10  A    between atoms: O_11  and  C_37 
REMARK   11  A    between atoms: O_11  and  C_22 
REMARK   12  A    between atoms: O_12  and  C_23 
REMARK   13  A    between atoms: O_12  and  C_40 
REMARK   14  A    between atoms: C_21  and  C_22 
REMARK   15  A    between atoms: C_22  and  C_23 
REMARK   16  A    between atoms: C_24  and  C_25 
REMARK   17  A    between atoms: C_24  and  C_26 
REMARK   18  A    between atoms: C_25  and  C_27 
REMARK   19  A    between atoms: C_26  and  C_28 
REMARK   20  A    between atoms: C_27  and  C_29 
REMARK   21  A    between atoms: C_28  and  C_30 
REMARK   22  A    between atoms: C_29  and  C_31 
REMARK   23  A    between atoms: C_30  and  C_32 
REMARK   24  A    between atoms: C_31  and  C_33 
REMARK   25  A    between atoms: C_32  and  C_34 
REMARK   26  A    between atoms: C_33  and  C_36 
REMARK   27  A    between atoms: C_34  and  C_35 
REMARK   28  A    between atoms: C_35  and  C_40 
REMARK   29  A    between atoms: C_36  and  C_43 
REMARK   30  A    between atoms: C_37  and  C_38 
REMARK   31  A    between atoms: C_38  and  C_39 
REMARK   32  A    between atoms: C_39  and  C_41 
REMARK   33  A    between atoms: C_41  and  C_42 
REMARK   34  A    between atoms: C_42  and  C_44 
REMARK   35  A    between atoms: C_44  and  C_45 
REMARK   36  A    between atoms: C_45  and  C_48 
REMARK   37  A    between atoms: C_46  and  C_47 
REMARK   38  A    between atoms: C_46  and  C_49 
REMARK   39  A    between atoms: C_47  and  C_50 
REMARK   40  A    between atoms: C_48  and  C_54 
REMARK   41  A    between atoms: C_49  and  C_52 
REMARK   42  A    between atoms: C_50  and  C_53 
REMARK   43  A    between atoms: C_52  and  C_55 
REMARK   44  A    between atoms: C_53  and  C_56 
ROOT
HETATM    1  C   UNK     0     110.853 141.199 130.707  0.00  0.00     0.184 C 
ENDROOT
BRANCH   1   2
HETATM    2  O   UNK     0     112.238 140.819 130.800  0.00  0.00    -0.299 OA
BRANCH   2   3
HETATM    3  C   UNK     0     112.718 139.635 131.274  0.00  0.00     0.272 C 
HETATM    4  O   UNK     0     112.832 139.427 132.503  0.00  0.00    -0.264 OA
BRANCH   3   5
HETATM    5  C   UNK     0     113.039 138.580 130.293  0.00  0.00     0.096 C 
BRANCH   5   6
HETATM    6  C   UNK     0     113.638 139.079 128.953  0.00  0.00     0.010 C 
BRANCH   6   7
HETATM    7  C   UNK     0     114.997 139.789 129.204  0.00  0.00     0.001 C 
BRANCH   7   8
HETATM    8  C   UNK     0     115.355 140.909 128.189  0.00  0.00     0.000 C 
BRANCH   8   9
HETATM    9  C   UNK     0     114.554 142.205 128.502  0.00  0.00     0.000 C 
BRANCH   9  10
HETATM   10  C   UNK     0     115.417 143.493 128.579  0.00  0.00     0.005 C 
BRANCH  10  11
HETATM   11  C   UNK     0     114.621 144.676 129.204  0.00  0.00     0.026 C 
BRANCH  11  12
HETATM   12  C   UNK     0     115.037 145.964 128.665  0.00  0.00    -0.031 C 
HETATM   13  C   UNK     0     114.525 146.563 127.572  0.00  0.00    -0.031 C 
BRANCH  13  14
HETATM   14  C   UNK     0     113.443 146.053 126.739  0.00  0.00     0.026 C 
BRANCH  14  15
HETATM   15  C   UNK     0     113.913 145.748 125.291  0.00  0.00     0.005 C 
BRANCH  15  16
HETATM   16  C   UNK     0     113.942 144.223 125.010  0.00  0.00     0.000 C 
BRANCH  16  17
HETATM   17  C   UNK     0     115.380 143.651 124.925  0.00  0.00     0.000 C 
BRANCH  17  18
HETATM   18  C   UNK     0     116.459 144.766 124.860  0.00  0.00     0.000 C 
BRANCH  18  19
HETATM   19  C   UNK     0     117.025 144.955 123.427  0.00  0.00     0.000 C 
BRANCH  19  20
HETATM   20  C   UNK     0     117.892 146.234 123.282  0.00  0.00     0.000 C 
HETATM   21  C   UNK     0     119.407 145.947 123.392  0.00  0.00     0.000 C 
ENDBRANCH  19  20
ENDBRANCH  18  19
ENDBRANCH  17  18
ENDBRANCH  16  17
ENDBRANCH  15  16
ENDBRANCH  14  15
ENDBRANCH  13  14
ENDBRANCH  11  12
ENDBRANCH  10  11
ENDBRANCH   9  10
ENDBRANCH   8   9
ENDBRANCH   7   8
ENDBRANCH   6   7
ENDBRANCH   5   6
ENDBRANCH   3   5
ENDBRANCH   2   3
ENDBRANCH   1   2
BRANCH   1  22
HETATM   22  C   UNK     0     110.534 142.414 131.616  0.00  0.00     0.187 C 
BRANCH  22  23
HETATM   23  O   UNK     0     109.118 142.593 131.828  0.00  0.00    -0.268 OA
BRANCH  23  24
HETATM   24  P   UNK     0     108.635 142.512 133.352  0.00  0.00     0.410 P 
HETATM   25  O   UNK     0     107.103 142.113 133.465  0.00  0.00    -0.624 OA
HETATM   26  O   UNK     0     109.418 141.461 134.018  0.00  0.00    -0.624 OA
BRANCH  24  27
HETATM   27  O   UNK     0     108.901 143.879 134.147  0.00  0.00    -0.268 OA
BRANCH  27  28
HETATM   28  C   UNK     0     109.671 143.960 135.373  0.00  0.00     0.185 C 
HETATM   29  C   UNK     0     108.849 144.161 136.686  0.00  0.00     0.170 C 
HETATM   30  C   UNK     0     109.751 144.133 137.951  0.00  0.00     0.169 C 
HETATM   31  C   UNK     0     110.929 145.141 137.844  0.00  0.00     0.169 C 
HETATM   32  C   UNK     0     111.780 144.873 136.569  0.00  0.00     0.169 C 
HETATM   33  C   UNK     0     110.909 144.907 135.283  0.00  0.00     0.170 C 
BRANCH  29  34
HETATM   34  O   UNK     0     107.843 143.157 136.807  0.00  0.00    -0.380 OA
HETATM   35  H   UNK     0     108.161 142.553 137.512  0.00  0.00     0.211 HD
ENDBRANCH  29  34
BRANCH  30  36
HETATM   36  O   UNK     0     108.952 144.439 139.093  0.00  0.00    -0.380 OA
HETATM   37  H   UNK     0     108.771 143.574 139.518  0.00  0.00     0.211 HD
ENDBRANCH  30  36
BRANCH  31  38
HETATM   38  O   UNK     0     111.745 145.040 139.009  0.00  0.00    -0.380 OA
HETATM   39  H   UNK     0     112.630 145.355 138.731  0.00  0.00     0.211 HD
ENDBRANCH  31  38
BRANCH  32  40
HETATM   40  O   UNK     0     112.806 145.860 136.466  0.00  0.00    -0.380 OA
HETATM   41  H   UNK     0     112.874 146.253 137.362  0.00  0.00     0.211 HD
ENDBRANCH  32  40
BRANCH  33  42
HETATM   42  O   UNK     0     111.694 144.568 134.141  0.00  0.00    -0.380 OA
HETATM   43  H   UNK     0     111.417 143.658 133.906  0.00  0.00     0.211 HD
ENDBRANCH  33  42
ENDBRANCH  27  28
ENDBRANCH  24  27
ENDBRANCH  23  24
ENDBRANCH  22  23
ENDBRANCH   1  22
BRANCH   1  44
HETATM   44  C   UNK     0     110.551 141.528 129.210  0.00  0.00     0.184 C 
BRANCH  44  45
HETATM   45  O   UNK     0     110.289 140.327 128.468  0.00  0.00    -0.299 OA
BRANCH  45  46
HETATM   46  C   UNK     0     110.664 140.050 127.188  0.00  0.00     0.272 C 
HETATM   47  O   UNK     0     110.156 139.101 126.550  0.00  0.00    -0.264 OA
BRANCH  46  48
HETATM   48  C   UNK     0     111.788 140.831 126.627  0.00  0.00     0.096 C 
BRANCH  48  49
HETATM   49  C   UNK     0     112.624 139.876 125.730  0.00  0.00     0.010 C 
BRANCH  49  50
HETATM   50  C   UNK     0     113.303 140.518 124.490  0.00  0.00     0.001 C 
BRANCH  50  51
HETATM   51  C   UNK     0     114.515 139.649 124.047  0.00  0.00     0.000 C 
BRANCH  51  52
HETATM   52  C   UNK     0     115.837 139.860 124.834  0.00  0.00     0.000 C 
BRANCH  52  53
HETATM   53  C   UNK     0     116.959 140.355 123.876  0.00  0.00     0.000 C 
BRANCH  53  54
HETATM   54  C   UNK     0     117.183 139.490 122.607  0.00  0.00     0.000 C 
BRANCH  54  55
HETATM   55  C   UNK     0     116.824 140.271 121.310  0.00  0.00     0.000 C 
BRANCH  55  56
HETATM   56  C   UNK     0     116.683 141.800 121.535  0.00  0.00     0.000 C 
BRANCH  56  57
HETATM   57  C   UNK     0     115.157 142.231 121.463  0.00  0.00     0.000 C 
BRANCH  57  58
HETATM   58  C   UNK     0     115.018 143.678 120.927  0.00  0.00     0.000 C 
BRANCH  58  59
HETATM   59  C   UNK     0     113.578 144.246 121.045  0.00  0.00     0.000 C 
BRANCH  59  60
HETATM   60  C   UNK     0     112.573 143.424 120.195  0.00  0.00     0.000 C 
BRANCH  60  61
HETATM   61  C   UNK     0     112.711 143.655 118.670  0.00  0.00     0.000 C 
HETATM   62  C   UNK     0     113.119 142.365 117.922  0.00  0.00     0.000 C 
ENDBRANCH  60  61
ENDBRANCH  59  60
ENDBRANCH  58  59
ENDBRANCH  57  58
ENDBRANCH  56  57
ENDBRANCH  55  56
ENDBRANCH  54  55
ENDBRANCH  53  54
ENDBRANCH  52  53
ENDBRANCH  51  52
ENDBRANCH  50  51
ENDBRANCH  49  50
ENDBRANCH  48  49
ENDBRANCH  46  48
ENDBRANCH  45  46
ENDBRANCH  44  45
ENDBRANCH   1  44
TORSDOF 44
ENDMDL
MODEL 9
REMARK VINA RESULT:      -7.1      2.013      6.137
REMARK WARNING: 32 MAX_TORS EXCEEDED!!!
REMARK  44 active torsions:
REMARK  status: ('A' for Active; 'I' for Inactive)
REMARK    1  A    between atoms: P_1  and  O_2 
REMARK    2  A    between atoms: P_1  and  O_8 
REMARK    3  A    between atoms: O_2  and  C_15 
REMARK    4  A    between atoms: O_3  and  C_16 
REMARK    5  A    between atoms: O_4  and  C_17 
REMARK    6  A    between atoms: O_5  and  C_18 
REMARK    7  A    between atoms: O_6  and  C_19 
REMARK    8  A    between atoms: O_7  and  C_20 
REMARK    9  A    between atoms: O_8  and  C_21 
REMARK   10  A    between atoms: O_11  and  C_37 
REMARK   11  A    between atoms: O_11  and  C_22 
REMARK   12  A    between atoms: O_12  and  C_23 
REMARK   13  A    between atoms: O_12  and  C_40 
REMARK   14  A    between atoms: C_21  and  C_22 
REMARK   15  A    between atoms: C_22  and  C_23 
REMARK   16  A    between atoms: C_24  and  C_25 
REMARK   17  A    between atoms: C_24  and  C_26 
REMARK   18  A    between atoms: C_25  and  C_27 
REMARK   19  A    between atoms: C_26  and  C_28 
REMARK   20  A    between atoms: C_27  and  C_29 
REMARK   21  A    between atoms: C_28  and  C_30 
REMARK   22  A    between atoms: C_29  and  C_31 
REMARK   23  A    between atoms: C_30  and  C_32 
REMARK   24  A    between atoms: C_31  and  C_33 
REMARK   25  A    between atoms: C_32  and  C_34 
REMARK   26  A    between atoms: C_33  and  C_36 
REMARK   27  A    between atoms: C_34  and  C_35 
REMARK   28  A    between atoms: C_35  and  C_40 
REMARK   29  A    between atoms: C_36  and  C_43 
REMARK   30  A    between atoms: C_37  and  C_38 
REMARK   31  A    between atoms: C_38  and  C_39 
REMARK   32  A    between atoms: C_39  and  C_41 
REMARK   33  A    between atoms: C_41  and  C_42 
REMARK   34  A    between atoms: C_42  and  C_44 
REMARK   35  A    between atoms: C_44  and  C_45 
REMARK   36  A    between atoms: C_45  and  C_48 
REMARK   37  A    between atoms: C_46  and  C_47 
REMARK   38  A    between atoms: C_46  and  C_49 
REMARK   39  A    between atoms: C_47  and  C_50 
REMARK   40  A    between atoms: C_48  and  C_54 
REMARK   41  A    between atoms: C_49  and  C_52 
REMARK   42  A    between atoms: C_50  and  C_53 
REMARK   43  A    between atoms: C_52  and  C_55 
REMARK   44  A    between atoms: C_53  and  C_56 
ROOT
HETATM    1  C   UNK     0     111.494 141.585 131.148  0.00  0.00     0.184 C 
ENDROOT
BRANCH   1   2
HETATM    2  O   UNK     0     110.227 141.299 130.530  0.00  0.00    -0.299 OA
BRANCH   2   3
HETATM    3  C   UNK     0     110.025 140.516 129.432  0.00  0.00     0.272 C 
HETATM    4  O   UNK     0     109.507 139.381 129.530  0.00  0.00    -0.264 OA
BRANCH   3   5
HETATM    5  C   UNK     0     110.376 141.077 128.113  0.00  0.00     0.096 C 
BRANCH   5   6
HETATM    6  C   UNK     0     109.695 140.398 126.897  0.00  0.00     0.010 C 
BRANCH   6   7
HETATM    7  C   UNK     0     110.680 139.411 126.212  0.00  0.00     0.001 C 
BRANCH   7   8
HETATM    8  C   UNK     0     112.114 139.960 125.983  0.00  0.00     0.000 C 
BRANCH   8   9
HETATM    9  C   UNK     0     112.173 140.803 124.677  0.00  0.00     0.000 C 
BRANCH   9  10
HETATM   10  C   UNK     0     113.554 140.797 123.968  0.00  0.00     0.005 C 
BRANCH  10  11
HETATM   11  C   UNK     0     114.406 139.565 124.390  0.00  0.00     0.026 C 
BRANCH  11  12
HETATM   12  C   UNK     0     115.722 139.949 124.884  0.00  0.00    -0.031 C 
HETATM   13  C   UNK     0     116.901 139.601 124.335  0.00  0.00    -0.031 C 
BRANCH  13  14
HETATM   14  C   UNK     0     117.088 138.801 123.131  0.00  0.00     0.026 C 
BRANCH  14  15
HETATM   15  C   UNK     0     117.501 137.340 123.457  0.00  0.00     0.005 C 
BRANCH  15  16
HETATM   16  C   UNK     0     118.318 137.259 124.773  0.00  0.00     0.000 C 
BRANCH  16  17
HETATM   17  C   UNK     0     119.749 136.700 124.562  0.00  0.00     0.000 C 
BRANCH  17  18
HETATM   18  C   UNK     0     120.769 137.809 124.188  0.00  0.00     0.000 C 
BRANCH  18  19
HETATM   19  C   UNK     0     120.540 139.116 124.994  0.00  0.00     0.000 C 
BRANCH  19  20
HETATM   20  C   UNK     0     120.580 140.389 124.107  0.00  0.00     0.000 C 
HETATM   21  C   UNK     0     120.519 140.070 122.595  0.00  0.00     0.000 C 
ENDBRANCH  19  20
ENDBRANCH  18  19
ENDBRANCH  17  18
ENDBRANCH  16  17
ENDBRANCH  15  16
ENDBRANCH  14  15
ENDBRANCH  13  14
ENDBRANCH  11  12
ENDBRANCH  10  11
ENDBRANCH   9  10
ENDBRANCH   8   9
ENDBRANCH   7   8
ENDBRANCH   6   7
ENDBRANCH   5   6
ENDBRANCH   3   5
ENDBRANCH   2   3
ENDBRANCH   1   2
BRANCH   1  22
HETATM   22  C   UNK     0     111.370 142.715 132.203  0.00  0.00     0.187 C 
BRANCH  22  23
HETATM   23  O   UNK     0     110.805 142.253 133.448  0.00  0.00    -0.268 OA
BRANCH  23  24
HETATM   24  P   UNK     0     109.306 142.733 133.743  0.00  0.00     0.410 P 
HETATM   25  O   UNK     0     108.782 143.743 132.638  0.00  0.00    -0.624 OA
HETATM   26  O   UNK     0     108.438 141.547 133.709  0.00  0.00    -0.624 OA
BRANCH  24  27
HETATM   27  O   UNK     0     109.156 143.391 135.197  0.00  0.00    -0.268 OA
BRANCH  27  28
HETATM   28  C   UNK     0     110.265 143.948 135.947  0.00  0.00     0.185 C 
HETATM   29  C   UNK     0     110.202 143.770 137.498  0.00  0.00     0.170 C 
HETATM   30  C   UNK     0     111.479 144.307 138.201  0.00  0.00     0.169 C 
HETATM   31  C   UNK     0     111.786 145.777 137.798  0.00  0.00     0.169 C 
HETATM   32  C   UNK     0     111.922 145.916 136.253  0.00  0.00     0.169 C 
HETATM   33  C   UNK     0     110.654 145.399 135.519  0.00  0.00     0.170 C 
BRANCH  29  34
HETATM   34  O   UNK     0     110.023 142.396 137.838  0.00  0.00    -0.380 OA
HETATM   35  H   UNK     0     109.058 142.235 137.771  0.00  0.00     0.211 HD
ENDBRANCH  29  34
BRANCH  30  36
HETATM   36  O   UNK     0     111.298 144.219 139.614  0.00  0.00    -0.380 OA
HETATM   37  H   UNK     0     110.333 144.111 139.742  0.00  0.00     0.211 HD
ENDBRANCH  30  36
BRANCH  31  38
HETATM   38  O   UNK     0     112.989 146.200 138.436  0.00  0.00    -0.380 OA
HETATM   39  H   UNK     0     113.410 146.820 137.805  0.00  0.00     0.211 HD
ENDBRANCH  31  38
BRANCH  32  40
HETATM   40  O   UNK     0     112.132 147.287 135.917  0.00  0.00    -0.380 OA
HETATM   41  H   UNK     0     112.942 147.549 136.403  0.00  0.00     0.211 HD
ENDBRANCH  32  40
BRANCH  33  42
HETATM   42  O   UNK     0     110.841 145.452 134.106  0.00  0.00    -0.380 OA
HETATM   43  H   UNK     0     111.776 145.196 133.967  0.00  0.00     0.211 HD
ENDBRANCH  33  42
ENDBRANCH  27  28
ENDBRANCH  24  27
ENDBRANCH  23  24
ENDBRANCH  22  23
ENDBRANCH   1  22
BRANCH   1  44
HETATM   44  C   UNK     0     112.011 140.264 131.803  0.00  0.00     0.184 C 
BRANCH  44  45
HETATM   45  O   UNK     0     113.145 139.751 131.087  0.00  0.00    -0.299 OA
BRANCH  45  46
HETATM   46  C   UNK     0     113.131 138.920 130.007  0.00  0.00     0.272 C 
HETATM   47  O   UNK     0     112.385 137.915 129.967  0.00  0.00    -0.264 OA
BRANCH  46  48
HETATM   48  C   UNK     0     114.125 139.174 128.942  0.00  0.00     0.096 C 
BRANCH  48  49
HETATM   49  C   UNK     0     114.764 140.564 129.214  0.00  0.00     0.010 C 
BRANCH  49  50
HETATM   50  C   UNK     0     114.971 141.480 127.977  0.00  0.00     0.001 C 
BRANCH  50  51
HETATM   51  C   UNK     0     113.759 142.442 127.829  0.00  0.00     0.000 C 
BRANCH  51  52
HETATM   52  C   UNK     0     113.807 143.429 126.631  0.00  0.00     0.000 C 
BRANCH  52  53
HETATM   53  C   UNK     0     115.213 143.396 125.963  0.00  0.00     0.000 C 
BRANCH  53  54
HETATM   54  C   UNK     0     115.335 144.179 124.628  0.00  0.00     0.000 C 
BRANCH  54  55
HETATM   55  C   UNK     0     114.043 144.990 124.318  0.00  0.00     0.000 C 
BRANCH  55  56
HETATM   56  C   UNK     0     114.281 146.523 124.262  0.00  0.00     0.000 C 
BRANCH  56  57
HETATM   57  C   UNK     0     115.564 146.914 125.113  0.00  0.00     0.000 C 
BRANCH  57  58
HETATM   58  C   UNK     0     115.231 148.041 126.122  0.00  0.00     0.000 C 
BRANCH  58  59
HETATM   59  C   UNK     0     115.449 147.629 127.603  0.00  0.00     0.000 C 
BRANCH  59  60
HETATM   60  C   UNK     0     114.578 146.402 127.983  0.00  0.00     0.000 C 
BRANCH  60  61
HETATM   61  C   UNK     0     114.975 145.750 129.332  0.00  0.00     0.000 C 
HETATM   62  C   UNK     0     116.219 144.841 129.192  0.00  0.00     0.000 C 
ENDBRANCH  60  61
ENDBRANCH  59  60
ENDBRANCH  58  59
ENDBRANCH  57  58
ENDBRANCH  56  57
ENDBRANCH  55  56
ENDBRANCH  54  55
ENDBRANCH  53  54
ENDBRANCH  52  53
ENDBRANCH  51  52
ENDBRANCH  50  51
ENDBRANCH  49  50
ENDBRANCH  48  49
ENDBRANCH  46  48
ENDBRANCH  45  46
ENDBRANCH  44  45
ENDBRANCH   1  44
TORSDOF 44
ENDMDL
